 Gaussian 09, Revision D.01,
 Gaussian 09:  AS64L-G09RevD.01 24-Apr-2013

 --------------------------------------------------------------------
 #p hf 3-21g scf=tight NoSymmetry guess=read opt=(tight,modredundant)
 --------------------------------------------------------------------

 -----------------------------------
 Geometry optimization at the 2D-PES
 -----------------------------------
 Symbolic Z-matrix:
 Charge =  0 Multiplicity = 1

 SCF Done:  E(RHF) =  -226.380924731     A.U. after   13 cycles
 SCF Done:  E(RHF) =  -226.380930479     A.U. after   10 cycles
 SCF Done:  E(RHF) =  -226.380932099     A.U. after   10 cycles
 SCF Done:  E(RHF) =  -226.380932149     A.U. after    8 cycles
 SCF Done:  E(RHF) =  -226.380932151     A.U. after    6 cycles
 Optimization completed.
    -- Stationary point found.

                          Input orientation:
 ---------------------------------------------------------------------
 Center     Atomic      Atomic             Coordinates (Angstroms)
 Number     Number       Type             X           Y           Z
 ---------------------------------------------------------------------
      1          6           0        0.742205    0.624608    0.033391
      2          6           0        1.397500   -0.510021   -0.001019
      3          1           0        1.209134    1.586492    0.087343
      4          1           0        2.468124   -0.525091    0.023407
      5          1           0        0.878500   -1.447157   -0.036957
      6          8           0       -0.668041    0.669547    0.026898
      7          8           0       -1.185526    0.491219   -1.349488
      8          1           0       -0.382566    0.387919   -1.893886
 ---------------------------------------------------------------------

 Alpha  occ. eigenvalues --  -20.52687 -20.51851 -11.25218 -11.19738  -1.46243
 Alpha  occ. eigenvalues --   -1.23326  -1.05140  -0.81242  -0.71757  -0.67731
 Alpha  occ. eigenvalues --   -0.60091  -0.59387  -0.56977  -0.52725  -0.44092
 Alpha  occ. eigenvalues --   -0.39912
 Alpha virt. eigenvalues --    0.13488   0.26503   0.27397   0.29052   0.30472
 Alpha virt. eigenvalues --    0.36368   0.49440   0.54896   0.87273   0.96760
 Alpha virt. eigenvalues --    0.97499   1.04506   1.08237   1.11056   1.23465

 Mulliken charges:
               1
     1  C    0.065904
     2  C   -0.452528
     3  H    0.247024
     4  H    0.236681
     5  H    0.258134
     6  O   -0.379497
     7  O   -0.373343
     8  H    0.397625
 Sum of Mulliken charges =   0.00000

 Dipole moment (field-independent basis, Debye):
    X=              3.7511    Y=             -0.5514    Z=             -1.1869  Tot=              3.9728
 Quadrupole moment (field-independent basis, Debye-Ang):
   XX=            -25.3079   YY=            -22.3098   ZZ=            -21.8530
   XY=              1.9072   XZ=             -1.5813   YZ=             -0.0854

 Normal termination of Gaussian 09 at Fri Apr 12 15:03:45 2019.
