 Gaussian 09, Revision D.01,
 Gaussian 09:  AS64L-G09RevD.01 24-Apr-2013

 --------------------------------------------------------------------
 #p hf 3-21g scf=tight NoSymmetry guess=read opt=(tight,modredundant)
 --------------------------------------------------------------------

 -----------------------------------
 Geometry optimization at the 2D-PES
 -----------------------------------
 Symbolic Z-matrix:
 Charge =  0 Multiplicity = 1

 SCF Done:  E(RHF) =  -226.394562808     A.U. after   12 cycles
 SCF Done:  E(RHF) =  -226.394573136     A.U. after   13 cycles
 SCF Done:  E(RHF) =  -226.394592851     A.U. after   12 cycles
 SCF Done:  E(RHF) =  -226.394592980     A.U. after    9 cycles
 SCF Done:  E(RHF) =  -226.394592994     A.U. after    8 cycles
 SCF Done:  E(RHF) =  -226.394592995     A.U. after    7 cycles
 Optimization completed.
    -- Stationary point found.

                          Input orientation:
 ---------------------------------------------------------------------
 Center     Atomic      Atomic             Coordinates (Angstroms)
 Number     Number       Type             X           Y           Z
 ---------------------------------------------------------------------
      1          6           0        0.740463    0.568152    0.055265
      2          6           0        1.434643   -0.536624   -0.053175
      3          1           0        1.170623    1.546948    0.100491
      4          1           0        2.503096   -0.490852   -0.081776
      5          1           0        0.976569   -1.501793   -0.064271
      6          8           0       -0.649082    0.703210    0.058026
      7          8           0       -1.301938   -0.594123    0.155924
      8          1           0       -1.253965   -0.917086   -0.763250
 ---------------------------------------------------------------------

 Alpha  occ. eigenvalues --  -20.54584 -20.53483 -11.25197 -11.16945  -1.48837
 Alpha  occ. eigenvalues --   -1.24452  -1.04033  -0.80329  -0.71118  -0.69383
 Alpha  occ. eigenvalues --   -0.65416  -0.56837  -0.54492  -0.53122  -0.49026
 Alpha  occ. eigenvalues --   -0.36873
 Alpha virt. eigenvalues --    0.18946   0.22119   0.28363   0.29128   0.33187
 Alpha virt. eigenvalues --    0.36912   0.49441   0.58314   0.88394   0.96406
 Alpha virt. eigenvalues --    0.99956   1.06425   1.09536   1.11387   1.24654

 Mulliken charges:
               1
     1  C    0.146555
     2  C   -0.520175
     3  H    0.265042
     4  H    0.228017
     5  H    0.232785
     6  O   -0.397407
     7  O   -0.365632
     8  H    0.410815
 Sum of Mulliken charges =   0.00000

 Dipole moment (field-independent basis, Debye):
    X=              1.6590    Y=             -0.7300    Z=             -1.8280  Tot=              2.5743
 Quadrupole moment (field-independent basis, Debye-Ang):
   XX=            -23.4662   YY=            -21.3032   ZZ=            -24.4518
   XY=              2.5796   XZ=              2.6237   YZ=              1.9816

 Normal termination of Gaussian 09 at Fri Apr 12 17:51:58 2019.
