 Gaussian 09, Revision D.01,
 Gaussian 09:  AS64L-G09RevD.01 24-Apr-2013

 --------------------------------------------------------------------
 #p hf 3-21g scf=tight NoSymmetry guess=read opt=(tight,modredundant)
 --------------------------------------------------------------------

 -----------------------------------
 Geometry optimization at the 2D-PES
 -----------------------------------
 Symbolic Z-matrix:
 Charge =  0 Multiplicity = 1

 SCF Done:  E(RHF) =  -226.381434618     A.U. after   13 cycles
 SCF Done:  E(RHF) =  -226.381487981     A.U. after   13 cycles
 SCF Done:  E(RHF) =  -226.381500509     A.U. after   11 cycles
 SCF Done:  E(RHF) =  -226.381502981     A.U. after   11 cycles
 SCF Done:  E(RHF) =  -226.381503014     A.U. after    7 cycles
 SCF Done:  E(RHF) =  -226.381503015     A.U. after    6 cycles
 Optimization completed.
    -- Stationary point found.

                          Input orientation:
 ---------------------------------------------------------------------
 Center     Atomic      Atomic             Coordinates (Angstroms)
 Number     Number       Type             X           Y           Z
 ---------------------------------------------------------------------
      1          6           0        0.755353    0.552739    0.025245
      2          6           0        1.491563   -0.529139   -0.064237
      3          1           0        1.176388    1.534477    0.085291
      4          1           0        2.556556   -0.431497   -0.078136
      5          1           0        1.117489   -1.530777   -0.126579
      6          8           0       -0.624450    0.692591    0.061762
      7          8           0       -1.398931   -0.544415   -0.009169
      8          1           0       -0.746876   -1.261019   -0.071635
 ---------------------------------------------------------------------

 Alpha  occ. eigenvalues --  -20.54996 -20.53427 -11.26741 -11.18339  -1.48761
 Alpha  occ. eigenvalues --   -1.25348  -1.05501  -0.81666  -0.73726  -0.68274
 Alpha  occ. eigenvalues --   -0.64570  -0.58737  -0.54782  -0.54044  -0.49481
 Alpha  occ. eigenvalues --   -0.37263
 Alpha virt. eigenvalues --    0.18241   0.20468   0.26444   0.27173   0.36232
 Alpha virt. eigenvalues --    0.37196   0.49298   0.61418   0.88020   0.95107
 Alpha virt. eigenvalues --    1.01613   1.05289   1.07584   1.10667   1.23915

 Mulliken charges:
               1
     1  C    0.151750
     2  C   -0.541304
     3  H    0.276059
     4  H    0.243700
     5  H    0.204208
     6  O   -0.390051
     7  O   -0.362901
     8  H    0.418537
 Sum of Mulliken charges =   0.00000

 Dipole moment (field-independent basis, Debye):
    X=              2.8892    Y=             -1.3367    Z=             -0.1490  Tot=              3.1869
 Quadrupole moment (field-independent basis, Debye-Ang):
   XX=            -25.8289   YY=            -19.4932   ZZ=            -25.8736
   XY=              2.2217   XZ=              0.1574   YZ=              0.4000

 Normal termination of Gaussian 09 at Fri Apr 12 18:04:30 2019.
