 Gaussian 09, Revision D.01,
 Gaussian 09:  AS64L-G09RevD.01 24-Apr-2013

 --------------------------------------------------------------------
 #p hf 3-21g scf=tight NoSymmetry guess=read opt=(tight,modredundant)
 --------------------------------------------------------------------

 -----------------------------------
 Geometry optimization at the 2D-PES
 -----------------------------------
 Symbolic Z-matrix:
 Charge =  0 Multiplicity = 1

 SCF Done:  E(RHF) =  -226.391024263     A.U. after   13 cycles
 SCF Done:  E(RHF) =  -226.391031859     A.U. after   11 cycles
 SCF Done:  E(RHF) =  -226.391036090     A.U. after   10 cycles
 SCF Done:  E(RHF) =  -226.391036133     A.U. after    8 cycles
 SCF Done:  E(RHF) =  -226.391036138     A.U. after    7 cycles
 Optimization completed.
    -- Stationary point found.

                          Input orientation:
 ---------------------------------------------------------------------
 Center     Atomic      Atomic             Coordinates (Angstroms)
 Number     Number       Type             X           Y           Z
 ---------------------------------------------------------------------
      1          6           0        0.739324    0.604710    0.055237
      2          6           0        1.396062   -0.523193   -0.020657
      3          1           0        1.203891    1.568912    0.091942
      4          1           0        2.466912   -0.529743   -0.023370
      5          1           0        0.883365   -1.462388   -0.055639
      6          8           0       -0.668260    0.693373    0.018186
      7          8           0       -1.221205   -0.071111    1.144467
      8          1           0       -1.558437    0.651538    1.702074
 ---------------------------------------------------------------------

 Alpha  occ. eigenvalues --  -20.52577 -20.51970 -11.23762 -11.17361  -1.46568
 Alpha  occ. eigenvalues --   -1.22994  -1.03241  -0.79522  -0.70310  -0.66749
 Alpha  occ. eigenvalues --   -0.62707  -0.60515  -0.55415  -0.48229  -0.46454
 Alpha  occ. eigenvalues --   -0.37745
 Alpha virt. eigenvalues --    0.15880   0.25932   0.29233   0.30338   0.32382
 Alpha virt. eigenvalues --    0.36950   0.49897   0.57013   0.88518   0.97079
 Alpha virt. eigenvalues --    0.99338   1.06574   1.10193   1.12563   1.23390

 Mulliken charges:
               1
     1  C    0.119806
     2  C   -0.456886
     3  H    0.239324
     4  H    0.224776
     5  H    0.254376
     6  O   -0.408959
     7  O   -0.382627
     8  H    0.410192
 Sum of Mulliken charges =   0.00000

 Dipole moment (field-independent basis, Debye):
    X=              1.2626    Y=              1.1168    Z=              1.4483  Tot=              2.2224
 Quadrupole moment (field-independent basis, Debye-Ang):
   XX=            -20.9527   YY=            -21.3568   ZZ=            -22.0894
   XY=             -1.2486   XZ=             -2.8861   YZ=              2.9749

 Normal termination of Gaussian 09 at Fri Apr 12 17:02:15 2019.
