 Gaussian 09, Revision D.01,
 Gaussian 09:  AS64L-G09RevD.01 24-Apr-2013

 --------------------------------------------------------------------
 #p hf 3-21g scf=tight NoSymmetry guess=read opt=(tight,modredundant)
 --------------------------------------------------------------------

 -----------------------------------
 Geometry optimization at the 2D-PES
 -----------------------------------
 Symbolic Z-matrix:
 Charge =  0 Multiplicity = 1

 SCF Done:  E(RHF) =  -226.388741625     A.U. after   13 cycles
 SCF Done:  E(RHF) =  -226.388745328     A.U. after   12 cycles
 SCF Done:  E(RHF) =  -226.388834842     A.U. after   12 cycles
 SCF Done:  E(RHF) =  -226.388835605     A.U. after   10 cycles
 SCF Done:  E(RHF) =  -226.388835715     A.U. after    9 cycles
 SCF Done:  E(RHF) =  -226.388835728     A.U. after    7 cycles
 SCF Done:  E(RHF) =  -226.388835729     A.U. after    6 cycles
 Optimization completed.
    -- Stationary point found.

                          Input orientation:
 ---------------------------------------------------------------------
 Center     Atomic      Atomic             Coordinates (Angstroms)
 Number     Number       Type             X           Y           Z
 ---------------------------------------------------------------------
      1          6           0        0.743513    0.560481    0.064047
      2          6           0        1.452463   -0.536308   -0.051286
      3          1           0        1.173341    1.539637    0.100287
      4          1           0        2.519299   -0.469828   -0.090142
      5          1           0        1.031634   -1.519588   -0.047271
      6          8           0       -0.640956    0.700021    0.061996
      7          8           0       -1.340791   -0.575295    0.142665
      8          1           0       -0.919094   -1.111394   -0.554534
 ---------------------------------------------------------------------

 Alpha  occ. eigenvalues --  -20.54921 -20.53581 -11.26074 -11.17795  -1.49042
 Alpha  occ. eigenvalues --   -1.24877  -1.04910  -0.81083  -0.72761  -0.68400
 Alpha  occ. eigenvalues --   -0.65644  -0.57541  -0.54510  -0.54030  -0.49212
 Alpha  occ. eigenvalues --   -0.37335
 Alpha virt. eigenvalues --    0.18305   0.21453   0.27529   0.28168   0.34373
 Alpha virt. eigenvalues --    0.36691   0.49263   0.58906   0.88051   0.95915
 Alpha virt. eigenvalues --    1.00185   1.05735   1.08536   1.11068   1.24622

 Mulliken charges:
               1
     1  C    0.150880
     2  C   -0.534410
     3  H    0.270940
     4  H    0.236412
     5  H    0.217607
     6  O   -0.391272
     7  O   -0.361697
     8  H    0.411541
 Sum of Mulliken charges =   0.00000

 Dipole moment (field-independent basis, Debye):
    X=              2.4238    Y=             -1.0387    Z=             -1.3257  Tot=              2.9515
 Quadrupole moment (field-independent basis, Debye-Ang):
   XX=            -25.0447   YY=            -20.3860   ZZ=            -25.1486
   XY=              2.3354   XZ=              1.5413   YZ=              1.7421

 Normal termination of Gaussian 09 at Fri Apr 12 17:52:57 2019.
