 Gaussian 09, Revision D.01,
 Gaussian 09:  AS64L-G09RevD.01 24-Apr-2013

 --------------------------------------------------------------------
 #p hf 3-21g scf=tight NoSymmetry guess=read opt=(tight,modredundant)
 --------------------------------------------------------------------

 -----------------------------------
 Geometry optimization at the 2D-PES
 -----------------------------------
 Symbolic Z-matrix:
 Charge =  0 Multiplicity = 1

 SCF Done:  E(RHF) =  -226.393739540     A.U. after   13 cycles
 SCF Done:  E(RHF) =  -226.393740959     A.U. after   11 cycles
 SCF Done:  E(RHF) =  -226.393741721     A.U. after   10 cycles
 SCF Done:  E(RHF) =  -226.393741741     A.U. after    7 cycles
 SCF Done:  E(RHF) =  -226.393741742     A.U. after    6 cycles
 Optimization completed.
    -- Stationary point found.

                          Input orientation:
 ---------------------------------------------------------------------
 Center     Atomic      Atomic             Coordinates (Angstroms)
 Number     Number       Type             X           Y           Z
 ---------------------------------------------------------------------
      1          6           0        0.725130    0.628395    0.045810
      2          6           0        1.368748   -0.509747    0.004029
      3          1           0        1.190420    1.587188    0.129379
      4          1           0        2.439274   -0.533762    0.007708
      5          1           0        0.842316   -1.440500   -0.055540
      6          8           0       -0.678828    0.667270   -0.026382
      7          8           0       -1.136137    1.074601    1.318283
      8          1           0       -1.992980    0.615563    1.334061
 ---------------------------------------------------------------------

 Alpha  occ. eigenvalues --  -20.52466 -20.51596 -11.23801 -11.17638  -1.46232
 Alpha  occ. eigenvalues --   -1.23125  -1.03118  -0.79321  -0.69797  -0.67676
 Alpha  occ. eigenvalues --   -0.63368  -0.58993  -0.55795  -0.49941  -0.44540
 Alpha  occ. eigenvalues --   -0.38256
 Alpha virt. eigenvalues --    0.15952   0.27088   0.28818   0.31141   0.31989
 Alpha virt. eigenvalues --    0.36220   0.49430   0.56868   0.89197   0.97426
 Alpha virt. eigenvalues --    0.98938   1.07126   1.10254   1.12618   1.23355

 Mulliken charges:
               1
     1  C    0.150647
     2  C   -0.464444
     3  H    0.242404
     4  H    0.227942
     5  H    0.240013
     6  O   -0.418448
     7  O   -0.394017
     8  H    0.415903
 Sum of Mulliken charges =   0.00000

 Dipole moment (field-independent basis, Debye):
    X=              0.1990    Y=             -1.0905    Z=              0.3297  Tot=              1.1565
 Quadrupole moment (field-independent basis, Debye-Ang):
   XX=            -16.9768   YY=            -23.7631   ZZ=            -25.5422
   XY=              1.2977   XZ=             -2.7002   YZ=             -0.8974

 Normal termination of Gaussian 09 at Fri Apr 12 16:25:58 2019.
