 Gaussian 09, Revision D.01,
 Gaussian 09:  AS64L-G09RevD.01 24-Apr-2013

 --------------------------------------------------------------------
 #p hf 3-21g scf=tight NoSymmetry guess=read opt=(tight,modredundant)
 --------------------------------------------------------------------

 -----------------------------------
 Geometry optimization at the 2D-PES
 -----------------------------------
 Symbolic Z-matrix:
 Charge =  0 Multiplicity = 1

 SCF Done:  E(RHF) =  -226.390689240     A.U. after   13 cycles
 SCF Done:  E(RHF) =  -226.390698587     A.U. after   11 cycles
 SCF Done:  E(RHF) =  -226.390703284     A.U. after   10 cycles
 SCF Done:  E(RHF) =  -226.390703340     A.U. after    8 cycles
 SCF Done:  E(RHF) =  -226.390703347     A.U. after    6 cycles
 Optimization completed.
    -- Stationary point found.

                          Input orientation:
 ---------------------------------------------------------------------
 Center     Atomic      Atomic             Coordinates (Angstroms)
 Number     Number       Type             X           Y           Z
 ---------------------------------------------------------------------
      1          6           0        0.735187    0.617969    0.043710
      2          6           0        1.382626   -0.516401   -0.009117
      3          1           0        1.207555    1.576877    0.108932
      4          1           0        2.453375   -0.537601    0.002833
      5          1           0        0.857224   -1.448032   -0.062031
      6          8           0       -0.675334    0.676660   -0.007521
      7          8           0       -1.187059    0.357691    1.335757
      8          1           0       -1.528332    1.226560    1.611231
 ---------------------------------------------------------------------

 Alpha  occ. eigenvalues --  -20.52348 -20.51720 -11.23665 -11.17773  -1.46251
 Alpha  occ. eigenvalues --   -1.22841  -1.03291  -0.79552  -0.70020  -0.67023
 Alpha  occ. eigenvalues --   -0.63630  -0.58903  -0.55708  -0.48239  -0.45560
 Alpha  occ. eigenvalues --   -0.38528
 Alpha virt. eigenvalues --    0.15330   0.26541   0.29112   0.30746   0.32127
 Alpha virt. eigenvalues --    0.36531   0.49533   0.56616   0.88470   0.97327
 Alpha virt. eigenvalues --    0.98540   1.06600   1.10113   1.12484   1.23848

 Mulliken charges:
               1
     1  C    0.119814
     2  C   -0.445364
     3  H    0.230069
     4  H    0.226220
     5  H    0.253679
     6  O   -0.407060
     7  O   -0.384324
     8  H    0.406967
 Sum of Mulliken charges =   0.00000

 Dipole moment (field-independent basis, Debye):
    X=              1.3501    Y=              1.4283    Z=              0.8733  Tot=              2.1507
 Quadrupole moment (field-independent basis, Debye-Ang):
   XX=            -20.9489   YY=            -19.1841   ZZ=            -23.8434
   XY=             -2.1723   XZ=             -2.0004   YZ=              3.6781

 Normal termination of Gaussian 09 at Fri Apr 12 16:46:34 2019.
