 Gaussian 09, Revision D.01,
 Gaussian 09:  AS64L-G09RevD.01 24-Apr-2013

 --------------------------------------------------------------------
 #p hf 3-21g scf=tight NoSymmetry guess=read opt=(tight,modredundant)
 --------------------------------------------------------------------

 -----------------------------------
 Geometry optimization at the 2D-PES
 -----------------------------------
 Symbolic Z-matrix:
 Charge =  0 Multiplicity = 1

 SCF Done:  E(RHF) =  -226.393570547     A.U. after   12 cycles
 SCF Done:  E(RHF) =  -226.393579943     A.U. after   11 cycles
 SCF Done:  E(RHF) =  -226.393590292     A.U. after   10 cycles
 SCF Done:  E(RHF) =  -226.393590331     A.U. after    8 cycles
 SCF Done:  E(RHF) =  -226.393590333     A.U. after    7 cycles
 Optimization completed.
    -- Stationary point found.

                          Input orientation:
 ---------------------------------------------------------------------
 Center     Atomic      Atomic             Coordinates (Angstroms)
 Number     Number       Type             X           Y           Z
 ---------------------------------------------------------------------
      1          6           0        0.737651    0.636593    0.042594
      2          6           0        1.371834   -0.507235   -0.006471
      3          1           0        1.204351    1.595050    0.111208
      4          1           0        2.441739   -0.531311   -0.004290
      5          1           0        0.844115   -1.437920   -0.050591
      6          8           0       -0.665539    0.682693    0.006969
      7          8           0       -1.077763    2.048900    0.316793
      8          1           0       -1.259441    2.396734   -0.574124
 ---------------------------------------------------------------------

 Alpha  occ. eigenvalues --  -20.53932 -20.53243 -11.24583 -11.16642  -1.48315
 Alpha  occ. eigenvalues --   -1.24153  -1.03049  -0.80127  -0.71565  -0.67406
 Alpha  occ. eigenvalues --   -0.65292  -0.56716  -0.54722  -0.52885  -0.48672
 Alpha  occ. eigenvalues --   -0.36222
 Alpha virt. eigenvalues --    0.19058   0.22178   0.27142   0.31882   0.33719
 Alpha virt. eigenvalues --    0.35678   0.49544   0.57452   0.89981   0.96783
 Alpha virt. eigenvalues --    0.99887   1.06189   1.10636   1.11768   1.23632

 Mulliken charges:
               1
     1  C    0.149912
     2  C   -0.506063
     3  H    0.253953
     4  H    0.227086
     5  H    0.241734
     6  O   -0.403372
     7  O   -0.374945
     8  H    0.411696
 Sum of Mulliken charges =   0.00000

 Dipole moment (field-independent basis, Debye):
    X=              1.3404    Y=              1.1126    Z=             -1.7702  Tot=              2.4836
 Quadrupole moment (field-independent basis, Debye-Ang):
   XX=            -22.3040   YY=            -18.2435   ZZ=            -25.1352
   XY=             -0.5619   XZ=              2.4283   YZ=             -4.1904

 Normal termination of Gaussian 09 at Fri Apr 12 15:46:06 2019.
