 Gaussian 09, Revision D.01,
 Gaussian 09:  AS64L-G09RevD.01 24-Apr-2013

 --------------------------------------------------------------------
 #p hf 3-21g scf=tight NoSymmetry guess=read opt=(tight,modredundant)
 --------------------------------------------------------------------

 -----------------------------------
 Geometry optimization at the 2D-PES
 -----------------------------------
 Symbolic Z-matrix:
 Charge =  0 Multiplicity = 1

 SCF Done:  E(RHF) =  -226.381752423     A.U. after   13 cycles
 SCF Done:  E(RHF) =  -226.381760947     A.U. after   12 cycles
 SCF Done:  E(RHF) =  -226.381765759     A.U. after   11 cycles
 SCF Done:  E(RHF) =  -226.381765844     A.U. after   10 cycles
 SCF Done:  E(RHF) =  -226.381765849     A.U. after    7 cycles
 SCF Done:  E(RHF) =  -226.381765849     A.U. after    6 cycles
 Optimization completed.
    -- Stationary point found.

                          Input orientation:
 ---------------------------------------------------------------------
 Center     Atomic      Atomic             Coordinates (Angstroms)
 Number     Number       Type             X           Y           Z
 ---------------------------------------------------------------------
      1          6           0        0.737409    0.607576    0.027468
      2          6           0        1.410530   -0.517716    0.003887
      3          1           0        1.196912    1.571994    0.082534
      4          1           0        2.480432   -0.509306    0.029070
      5          1           0        0.927009   -1.475756   -0.008868
      6          8           0       -0.667597    0.681492    0.006009
      7          8           0       -1.229498    0.064276   -1.208168
      8          1           0       -0.588995   -0.633619   -1.435248
 ---------------------------------------------------------------------

 Alpha  occ. eigenvalues --  -20.53209 -20.52457 -11.25806 -11.19374  -1.47043
 Alpha  occ. eigenvalues --   -1.23789  -1.05400  -0.81010  -0.72892  -0.67381
 Alpha  occ. eigenvalues --   -0.62562  -0.59575  -0.55741  -0.52654  -0.46225
 Alpha  occ. eigenvalues --   -0.38895
 Alpha virt. eigenvalues --    0.14268   0.23601   0.27724   0.29104   0.32199
 Alpha virt. eigenvalues --    0.36542   0.50071   0.55651   0.87434   0.95575
 Alpha virt. eigenvalues --    0.99924   1.04922   1.08182   1.10996   1.23660

 Mulliken charges:
               1
     1  C    0.119222
     2  C   -0.499807
     3  H    0.258496
     4  H    0.241483
     5  H    0.233769
     6  O   -0.389218
     7  O   -0.366558
     8  H    0.402613
 Sum of Mulliken charges =   0.00000

 Dipole moment (field-independent basis, Debye):
    X=              3.2739    Y=             -1.5104    Z=             -0.5701  Tot=              3.6503
 Quadrupole moment (field-independent basis, Debye-Ang):
   XX=            -25.1913   YY=            -21.2498   ZZ=            -24.3711
   XY=              2.2919   XZ=             -1.0189   YZ=              2.1471

 Normal termination of Gaussian 09 at Fri Apr 12 14:58:13 2019.
