 Gaussian 09, Revision D.01,
 Gaussian 09:  AS64L-G09RevD.01 24-Apr-2013

 --------------------------------------------------------------------
 #p hf 3-21g scf=tight NoSymmetry guess=read opt=(tight,modredundant)
 --------------------------------------------------------------------

 -----------------------------------
 Geometry optimization at the 2D-PES
 -----------------------------------
 Symbolic Z-matrix:
 Charge =  0 Multiplicity = 1

 SCF Done:  E(RHF) =  -226.387421361     A.U. after   13 cycles
 SCF Done:  E(RHF) =  -226.387430563     A.U. after   12 cycles
 SCF Done:  E(RHF) =  -226.387439846     A.U. after   10 cycles
 SCF Done:  E(RHF) =  -226.387439916     A.U. after    9 cycles
 SCF Done:  E(RHF) =  -226.387439928     A.U. after    8 cycles
 SCF Done:  E(RHF) =  -226.387439929     A.U. after    7 cycles
 Optimization completed.
    -- Stationary point found.

                          Input orientation:
 ---------------------------------------------------------------------
 Center     Atomic      Atomic             Coordinates (Angstroms)
 Number     Number       Type             X           Y           Z
 ---------------------------------------------------------------------
      1          6           0        0.726123    0.627764    0.036306
      2          6           0        1.379418   -0.506644   -0.017377
      3          1           0        1.189443    1.591138    0.058395
      4          1           0        2.450040   -0.523557   -0.011189
      5          1           0        0.863623   -1.446886   -0.030478
      6          8           0       -0.686509    0.655902    0.041912
      7          8           0       -1.141670    0.728713   -1.357316
      8          1           0       -0.769427   -0.087518   -1.739554
 ---------------------------------------------------------------------

 Alpha  occ. eigenvalues --  -20.52962 -20.52162 -11.24972 -11.19257  -1.46914
 Alpha  occ. eigenvalues --   -1.23265  -1.04761  -0.80534  -0.72522  -0.66014
 Alpha  occ. eigenvalues --   -0.63536  -0.59668  -0.56277  -0.50231  -0.45500
 Alpha  occ. eigenvalues --   -0.39888
 Alpha virt. eigenvalues --    0.14440   0.24851   0.27997   0.30365   0.31172
 Alpha virt. eigenvalues --    0.36005   0.49078   0.55287   0.87820   0.96253
 Alpha virt. eigenvalues --    0.98381   1.05461   1.08651   1.10678   1.24322

 Mulliken charges:
               1
     1  C    0.107954
     2  C   -0.471019
     3  H    0.248806
     4  H    0.236939
     5  H    0.241252
     6  O   -0.387623
     7  O   -0.374408
     8  H    0.398098
 Sum of Mulliken charges =   0.00000

 Dipole moment (field-independent basis, Debye):
    X=              2.8235    Y=             -1.7699    Z=             -0.9163  Tot=              3.4560
 Quadrupole moment (field-independent basis, Debye-Ang):
   XX=            -24.3867   YY=            -23.0037   ZZ=            -23.1556
   XY=              3.0172   XZ=             -0.1865   YZ=              2.4608

 Normal termination of Gaussian 09 at Fri Apr 12 15:05:50 2019.
