 Gaussian 09, Revision D.01,
 Gaussian 09:  AS64L-G09RevD.01 24-Apr-2013

 --------------------------------------------------------------------
 #p hf 3-21g scf=tight NoSymmetry guess=read opt=(tight,modredundant)
 --------------------------------------------------------------------

 -----------------------------------
 Geometry optimization at the 2D-PES
 -----------------------------------
 Symbolic Z-matrix:
 Charge =  0 Multiplicity = 1

 SCF Done:  E(RHF) =  -226.395340730     A.U. after   12 cycles
 SCF Done:  E(RHF) =  -226.395353153     A.U. after   12 cycles
 SCF Done:  E(RHF) =  -226.395367014     A.U. after   11 cycles
 SCF Done:  E(RHF) =  -226.395367209     A.U. after    9 cycles
 SCF Done:  E(RHF) =  -226.395367229     A.U. after    8 cycles
 SCF Done:  E(RHF) =  -226.395367231     A.U. after    7 cycles
 Optimization completed.
    -- Stationary point found.

                          Input orientation:
 ---------------------------------------------------------------------
 Center     Atomic      Atomic             Coordinates (Angstroms)
 Number     Number       Type             X           Y           Z
 ---------------------------------------------------------------------
      1          6           0        0.741148    0.572766    0.034297
      2          6           0        1.430339   -0.537191   -0.044493
      3          1           0        1.171057    1.551390    0.087650
      4          1           0        2.499675   -0.501118   -0.043387
      5          1           0        0.955080   -1.490335   -0.127351
      6          8           0       -0.651393    0.702891    0.044203
      7          8           0       -1.288594   -0.598941    0.189782
      8          1           0       -1.211399   -0.753313    1.149698
 ---------------------------------------------------------------------

 Alpha  occ. eigenvalues --  -20.54430 -20.53345 -11.24984 -11.16811  -1.48662
 Alpha  occ. eigenvalues --   -1.24247  -1.03867  -0.80324  -0.70271  -0.69748
 Alpha  occ. eigenvalues --   -0.64693  -0.57359  -0.55456  -0.51833  -0.48808
 Alpha  occ. eigenvalues --   -0.36827
 Alpha virt. eigenvalues --    0.18855   0.22626   0.28438   0.29287   0.33022
 Alpha virt. eigenvalues --    0.36985   0.49451   0.58269   0.88363   0.96427
 Alpha virt. eigenvalues --    1.00355   1.06498   1.09692   1.11278   1.24355

 Mulliken charges:
               1
     1  C    0.133537
     2  C   -0.515264
     3  H    0.262747
     4  H    0.225523
     5  H    0.246853
     6  O   -0.395495
     7  O   -0.368218
     8  H    0.410316
 Sum of Mulliken charges =   0.00000

 Dipole moment (field-independent basis, Debye):
    X=              1.7477    Y=             -0.4477    Z=              2.0077  Tot=              2.6992
 Quadrupole moment (field-independent basis, Debye-Ang):
   XX=            -23.6640   YY=            -21.8954   ZZ=            -22.8367
   XY=              1.9857   XZ=             -2.5112   YZ=             -1.4294

 Normal termination of Gaussian 09 at Fri Apr 12 17:46:22 2019.
