 Gaussian 09, Revision D.01,
 Gaussian 09:  AS64L-G09RevD.01 24-Apr-2013

 --------------------------------------------------------------------
 #p hf 3-21g scf=tight NoSymmetry guess=read opt=(tight,modredundant)
 --------------------------------------------------------------------

 -----------------------------------
 Geometry optimization at the 2D-PES
 -----------------------------------
 Symbolic Z-matrix:
 Charge =  0 Multiplicity = 1

 SCF Done:  E(RHF) =  -226.396475198     A.U. after   13 cycles
 SCF Done:  E(RHF) =  -226.396475773     A.U. after   10 cycles
 SCF Done:  E(RHF) =  -226.396475939     A.U. after   10 cycles
 SCF Done:  E(RHF) =  -226.396475955     A.U. after    8 cycles
 Optimization completed.
    -- Stationary point found.

                          Input orientation:
 ---------------------------------------------------------------------
 Center     Atomic      Atomic             Coordinates (Angstroms)
 Number     Number       Type             X           Y           Z
 ---------------------------------------------------------------------
      1          6           0        0.731790    0.580906    0.057383
      2          6           0        1.407766   -0.535328   -0.037030
      3          1           0        1.175888    1.554215    0.091413
      4          1           0        2.477759   -0.511475   -0.050313
      5          1           0        0.920201   -1.485693   -0.064418
      6          8           0       -0.658398    0.711064    0.042115
      7          8           0       -1.249149   -0.505422    0.611194
      8          1           0       -2.179561   -0.341399    0.383068
 ---------------------------------------------------------------------

 Alpha  occ. eigenvalues --  -20.53373 -20.52473 -11.23991 -11.16020  -1.47333
 Alpha  occ. eigenvalues --   -1.23788  -1.02731  -0.78916  -0.71457  -0.65754
 Alpha  occ. eigenvalues --   -0.64551  -0.59842  -0.53664  -0.51470  -0.47269
 Alpha  occ. eigenvalues --   -0.35736
 Alpha virt. eigenvalues --    0.18406   0.24568   0.28879   0.30537   0.33733
 Alpha virt. eigenvalues --    0.37400   0.50277   0.58569   0.89322   0.97552
 Alpha virt. eigenvalues --    1.00663   1.07500   1.10703   1.12710   1.23711

 Mulliken charges:
               1
     1  C    0.152652
     2  C   -0.493350
     3  H    0.254258
     4  H    0.219944
     5  H    0.251586
     6  O   -0.422882
     7  O   -0.384082
     8  H    0.421874
 Sum of Mulliken charges =   0.00000

 Dipole moment (field-independent basis, Debye):
    X=             -0.3162    Y=              0.0738    Z=             -0.3214  Tot=              0.4569
 Quadrupole moment (field-independent basis, Debye-Ang):
   XX=            -15.9438   YY=            -22.6636   ZZ=            -26.2615
   XY=              1.8986   XZ=             -0.1250   YZ=              0.6037

 Normal termination of Gaussian 09 at Fri Apr 12 17:28:05 2019.
