 Gaussian 09, Revision D.01,
 Gaussian 09:  AS64L-G09RevD.01 24-Apr-2013

 --------------------------------------------------------------------
 #p hf 3-21g scf=tight NoSymmetry guess=read opt=(tight,modredundant)
 --------------------------------------------------------------------

 -----------------------------------
 Geometry optimization at the 2D-PES
 -----------------------------------
 Symbolic Z-matrix:
 Charge =  0 Multiplicity = 1

 SCF Done:  E(RHF) =  -226.389977987     A.U. after   12 cycles
 SCF Done:  E(RHF) =  -226.389984787     A.U. after   11 cycles
 SCF Done:  E(RHF) =  -226.389989900     A.U. after   10 cycles
 SCF Done:  E(RHF) =  -226.389989919     A.U. after    8 cycles
 SCF Done:  E(RHF) =  -226.389989924     A.U. after    7 cycles
 Optimization completed.
    -- Stationary point found.

                          Input orientation:
 ---------------------------------------------------------------------
 Center     Atomic      Atomic             Coordinates (Angstroms)
 Number     Number       Type             X           Y           Z
 ---------------------------------------------------------------------
      1          6           0        0.739620    0.611668    0.048385
      2          6           0        1.389207   -0.521027   -0.014686
      3          1           0        1.210767    1.572335    0.096593
      4          1           0        2.460054   -0.538247   -0.009164
      5          1           0        0.867153   -1.454966   -0.058342
      6          8           0       -0.671035    0.686978    0.003922
      7          8           0       -1.209168    0.138120    1.257036
      8          1           0       -1.398790    0.953918    1.753378
 ---------------------------------------------------------------------

 Alpha  occ. eigenvalues --  -20.52472 -20.51874 -11.23763 -11.17751  -1.46436
 Alpha  occ. eigenvalues --   -1.22877  -1.03401  -0.79734  -0.70012  -0.67325
 Alpha  occ. eigenvalues --   -0.62706  -0.59771  -0.55843  -0.47714  -0.46386
 Alpha  occ. eigenvalues --   -0.38331
 Alpha virt. eigenvalues --    0.15336   0.26281   0.29088   0.30374   0.32090
 Alpha virt. eigenvalues --    0.36719   0.49699   0.56638   0.88347   0.97024
 Alpha virt. eigenvalues --    0.98882   1.06346   1.09971   1.12149   1.24028

 Mulliken charges:
               1
     1  C    0.111910
     2  C   -0.447965
     3  H    0.234492
     4  H    0.226129
     5  H    0.254996
     6  O   -0.404044
     7  O   -0.381580
     8  H    0.406063
 Sum of Mulliken charges =   0.00000

 Dipole moment (field-independent basis, Debye):
    X=              1.6394    Y=              1.2775    Z=              1.3146  Tot=              2.4592
 Quadrupole moment (field-independent basis, Debye-Ang):
   XX=            -21.8924   YY=            -20.2954   ZZ=            -22.3389
   XY=             -1.4716   XZ=             -2.1323   YZ=              3.6583

 Normal termination of Gaussian 09 at Fri Apr 12 16:51:54 2019.
