 Gaussian 09, Revision D.01,
 Gaussian 09:  AS64L-G09RevD.01 24-Apr-2013

 --------------------------------------------------------------------
 #p hf 3-21g scf=tight NoSymmetry guess=read opt=(tight,modredundant)
 --------------------------------------------------------------------

 -----------------------------------
 Geometry optimization at the 2D-PES
 -----------------------------------
 Symbolic Z-matrix:
 Charge =  0 Multiplicity = 1

 SCF Done:  E(RHF) =  -226.383369096     A.U. after   13 cycles
 SCF Done:  E(RHF) =  -226.383418169     A.U. after   13 cycles
 SCF Done:  E(RHF) =  -226.383463911     A.U. after   12 cycles
 SCF Done:  E(RHF) =  -226.383465728     A.U. after   11 cycles
 SCF Done:  E(RHF) =  -226.383465802     A.U. after    9 cycles
 SCF Done:  E(RHF) =  -226.383465811     A.U. after    6 cycles
 Optimization completed.
    -- Stationary point found.

                          Input orientation:
 ---------------------------------------------------------------------
 Center     Atomic      Atomic             Coordinates (Angstroms)
 Number     Number       Type             X           Y           Z
 ---------------------------------------------------------------------
      1          6           0        0.750681    0.553611    0.049675
      2          6           0        1.478226   -0.533327   -0.051507
      3          1           0        1.175080    1.533850    0.110414
      4          1           0        2.544036   -0.446092   -0.069365
      5          1           0        1.089260   -1.530611   -0.075211
      6          8           0       -0.629886    0.694787    0.049406
      7          8           0       -1.381998   -0.549777   -0.082983
      8          1           0       -0.752829   -1.186672   -0.462937
 ---------------------------------------------------------------------

 Alpha  occ. eigenvalues --  -20.55015 -20.53466 -11.26649 -11.18248  -1.48885
 Alpha  occ. eigenvalues --   -1.25238  -1.05417  -0.81569  -0.73554  -0.68295
 Alpha  occ. eigenvalues --   -0.64835  -0.58416  -0.54846  -0.54136  -0.49353
 Alpha  occ. eigenvalues --   -0.37328
 Alpha virt. eigenvalues --    0.18187   0.20815   0.26797   0.27442   0.35693
 Alpha virt. eigenvalues --    0.36837   0.49224   0.60412   0.87966   0.95291
 Alpha virt. eigenvalues --    1.01320   1.05400   1.07768   1.10788   1.23829

 Mulliken charges:
               1
     1  C    0.152179
     2  C   -0.543354
     3  H    0.275113
     4  H    0.242055
     5  H    0.209587
     6  O   -0.389707
     7  O   -0.362623
     8  H    0.416750
 Sum of Mulliken charges =   0.00000

 Dipole moment (field-independent basis, Debye):
    X=              2.8433    Y=             -1.1842    Z=             -0.7266  Tot=              3.1646
 Quadrupole moment (field-independent basis, Debye-Ang):
   XX=            -25.7490   YY=            -19.9139   ZZ=            -25.4075
   XY=              2.1104   XZ=              0.6104   YZ=              1.3384

 Normal termination of Gaussian 09 at Fri Apr 12 17:54:32 2019.
