 Gaussian 09, Revision D.01,
 Gaussian 09:  AS64L-G09RevD.01 24-Apr-2013

 --------------------------------------------------------------------
 #p hf 3-21g scf=tight NoSymmetry guess=read opt=(tight,modredundant)
 --------------------------------------------------------------------

 -----------------------------------
 Geometry optimization at the 2D-PES
 -----------------------------------
 Symbolic Z-matrix:
 Charge =  0 Multiplicity = 1

 SCF Done:  E(RHF) =  -226.386211351     A.U. after   13 cycles
 SCF Done:  E(RHF) =  -226.386222140     A.U. after   12 cycles
 SCF Done:  E(RHF) =  -226.386231457     A.U. after   10 cycles
 SCF Done:  E(RHF) =  -226.386231511     A.U. after    9 cycles
 SCF Done:  E(RHF) =  -226.386231517     A.U. after    8 cycles
 SCF Done:  E(RHF) =  -226.386231518     A.U. after    7 cycles
 Optimization completed.
    -- Stationary point found.

                          Input orientation:
 ---------------------------------------------------------------------
 Center     Atomic      Atomic             Coordinates (Angstroms)
 Number     Number       Type             X           Y           Z
 ---------------------------------------------------------------------
      1          6           0        0.744928    0.622990    0.044317
      2          6           0        1.384598   -0.516389   -0.003228
      3          1           0        1.225660    1.580232    0.095952
      4          1           0        2.455187   -0.547657   -0.008665
      5          1           0        0.847998   -1.441871   -0.050520
      6          8           0       -0.664882    0.676510   -0.013463
      7          8           0       -1.186953    0.845340    1.353149
      8          1           0       -0.787914    1.687335    1.642035
 ---------------------------------------------------------------------

 Alpha  occ. eigenvalues --  -20.52856 -20.52031 -11.24397 -11.18669  -1.46643
 Alpha  occ. eigenvalues --   -1.23194  -1.04048  -0.80884  -0.69682  -0.68955
 Alpha  occ. eigenvalues --   -0.62088  -0.58168  -0.57285  -0.49366  -0.45807
 Alpha  occ. eigenvalues --   -0.39145
 Alpha virt. eigenvalues --    0.14583   0.26164   0.27494   0.30281   0.32213
 Alpha virt. eigenvalues --    0.35664   0.49446   0.55946   0.88044   0.96480
 Alpha virt. eigenvalues --    0.98617   1.06112   1.09523   1.10627   1.25508

 Mulliken charges:
               1
     1  C    0.093538
     2  C   -0.442879
     3  H    0.225745
     4  H    0.229894
     5  H    0.257871
     6  O   -0.385075
     7  O   -0.374912
     8  H    0.395819
 Sum of Mulliken charges =   0.00000

 Dipole moment (field-independent basis, Debye):
    X=              2.8840    Y=              1.2822    Z=              0.7848  Tot=              3.2523
 Quadrupole moment (field-independent basis, Debye-Ang):
   XX=            -24.4726   YY=            -17.6704   ZZ=            -23.8634
   XY=              0.2328   XZ=              0.5464   YZ=              3.7899

 Normal termination of Gaussian 09 at Fri Apr 12 16:32:57 2019.
