 Gaussian 09, Revision D.01,
 Gaussian 09:  AS64L-G09RevD.01 24-Apr-2013

 --------------------------------------------------------------------
 #p hf 3-21g scf=tight NoSymmetry guess=read opt=(tight,modredundant)
 --------------------------------------------------------------------

 -----------------------------------
 Geometry optimization at the 2D-PES
 -----------------------------------
 Symbolic Z-matrix:
 Charge =  0 Multiplicity = 1

 SCF Done:  E(RHF) =  -226.382399882     A.U. after   13 cycles
 SCF Done:  E(RHF) =  -226.382410683     A.U. after   12 cycles
 SCF Done:  E(RHF) =  -226.382415362     A.U. after   10 cycles
 SCF Done:  E(RHF) =  -226.382415515     A.U. after    9 cycles
 SCF Done:  E(RHF) =  -226.382415519     A.U. after    7 cycles
 SCF Done:  E(RHF) =  -226.382415520     A.U. after    6 cycles
 Optimization completed.
    -- Stationary point found.

                          Input orientation:
 ---------------------------------------------------------------------
 Center     Atomic      Atomic             Coordinates (Angstroms)
 Number     Number       Type             X           Y           Z
 ---------------------------------------------------------------------
      1          6           0        0.738594    0.629354    0.035465
      2          6           0        1.390690   -0.506870   -0.007856
      3          1           0        1.205940    1.591362    0.077261
      4          1           0        2.461308   -0.525776    0.013122
      5          1           0        0.868225   -1.442386   -0.036867
      6          8           0       -0.671970    0.659423    0.034359
      7          8           0       -1.165756    0.724431   -1.359838
      8          1           0       -0.410754    0.404567   -1.888874
 ---------------------------------------------------------------------

 Alpha  occ. eigenvalues --  -20.52786 -20.51876 -11.25224 -11.19781  -1.46388
 Alpha  occ. eigenvalues --   -1.23345  -1.05123  -0.81165  -0.72186  -0.67182
 Alpha  occ. eigenvalues --   -0.61127  -0.59295  -0.56503  -0.52606  -0.44051
 Alpha  occ. eigenvalues --   -0.40195
 Alpha virt. eigenvalues --    0.13660   0.26292   0.27335   0.29508   0.30403
 Alpha virt. eigenvalues --    0.36126   0.49081   0.54923   0.87471   0.96605
 Alpha virt. eigenvalues --    0.97694   1.04584   1.08249   1.11023   1.23331

 Mulliken charges:
               1
     1  C    0.071336
     2  C   -0.454618
     3  H    0.246830
     4  H    0.237143
     5  H    0.255672
     6  O   -0.379130
     7  O   -0.374498
     8  H    0.397263
 Sum of Mulliken charges =   0.00000

 Dipole moment (field-independent basis, Debye):
    X=              3.6505    Y=             -0.9254    Z=             -1.1485  Tot=              3.9372
 Quadrupole moment (field-independent basis, Debye-Ang):
   XX=            -25.1995   YY=            -22.7988   ZZ=            -21.9821
   XY=              2.3889   XZ=             -1.4449   YZ=              0.5414

 Normal termination of Gaussian 09 at Fri Apr 12 15:04:45 2019.
