 Gaussian 09, Revision D.01,
 Gaussian 09:  AS64L-G09RevD.01 24-Apr-2013

 --------------------------------------------------------------------
 #p hf 3-21g scf=tight NoSymmetry guess=read opt=(tight,modredundant)
 --------------------------------------------------------------------

 -----------------------------------
 Geometry optimization at the 2D-PES
 -----------------------------------
 Symbolic Z-matrix:
 Charge =  0 Multiplicity = 1

 SCF Done:  E(RHF) =  -226.391287372     A.U. after   12 cycles
 SCF Done:  E(RHF) =  -226.391304332     A.U. after   13 cycles
 SCF Done:  E(RHF) =  -226.391326948     A.U. after   12 cycles
 SCF Done:  E(RHF) =  -226.391327092     A.U. after    9 cycles
 SCF Done:  E(RHF) =  -226.391327132     A.U. after    8 cycles
 SCF Done:  E(RHF) =  -226.391327136     A.U. after    7 cycles
 Optimization completed.
    -- Stationary point found.

                          Input orientation:
 ---------------------------------------------------------------------
 Center     Atomic      Atomic             Coordinates (Angstroms)
 Number     Number       Type             X           Y           Z
 ---------------------------------------------------------------------
      1          6           0        0.741188    0.571108    0.072211
      2          6           0        1.433565   -0.534412   -0.040948
      3          1           0        1.180351    1.546685    0.089998
      4          1           0        2.501869   -0.490302   -0.079140
      5          1           0        0.984750   -1.505299   -0.040094
      6          8           0       -0.651193    0.704094    0.059003
      7          8           0       -1.304431   -0.485414    0.591919
      8          1           0       -1.277686   -1.096276   -0.166711
 ---------------------------------------------------------------------

 Alpha  occ. eigenvalues --  -20.54229 -20.53306 -11.25189 -11.17438  -1.48442
 Alpha  occ. eigenvalues --   -1.24305  -1.04227  -0.80252  -0.71686  -0.68589
 Alpha  occ. eigenvalues --   -0.65791  -0.57208  -0.54250  -0.52589  -0.48886
 Alpha  occ. eigenvalues --   -0.37188
 Alpha virt. eigenvalues --    0.17437   0.22637   0.28279   0.28784   0.33874
 Alpha virt. eigenvalues --    0.36903   0.49680   0.58021   0.88321   0.96343
 Alpha virt. eigenvalues --    0.99056   1.06264   1.09395   1.11411   1.25052

 Mulliken charges:
               1
     1  C    0.149312
     2  C   -0.507710
     3  H    0.263393
     4  H    0.232087
     5  H    0.217903
     6  O   -0.399688
     7  O   -0.365363
     8  H    0.410067
 Sum of Mulliken charges =   0.00000

 Dipole moment (field-independent basis, Debye):
    X=              1.7046    Y=             -1.3288    Z=             -1.3917  Tot=              2.5706
 Quadrupole moment (field-independent basis, Debye-Ang):
   XX=            -23.1831   YY=            -20.2600   ZZ=            -26.3564
   XY=              3.3985   XZ=              2.1166   YZ=              1.3056

 Normal termination of Gaussian 09 at Fri Apr 12 17:30:18 2019.
