 Gaussian 09, Revision D.01,
 Gaussian 09:  AS64L-G09RevD.01 24-Apr-2013

 --------------------------------------------------------------------
 #p hf 3-21g scf=tight NoSymmetry guess=read opt=(tight,modredundant)
 --------------------------------------------------------------------

 -----------------------------------
 Geometry optimization at the 2D-PES
 -----------------------------------
 Symbolic Z-matrix:
 Charge =  0 Multiplicity = 1

 SCF Done:  E(RHF) =  -226.393710764     A.U. after   13 cycles
 SCF Done:  E(RHF) =  -226.393715151     A.U. after   11 cycles
 SCF Done:  E(RHF) =  -226.393717773     A.U. after   10 cycles
 SCF Done:  E(RHF) =  -226.393717835     A.U. after    8 cycles
 SCF Done:  E(RHF) =  -226.393717837     A.U. after    6 cycles
 Optimization completed.
    -- Stationary point found.

                          Input orientation:
 ---------------------------------------------------------------------
 Center     Atomic      Atomic             Coordinates (Angstroms)
 Number     Number       Type             X           Y           Z
 ---------------------------------------------------------------------
      1          6           0        0.733465    0.596205    0.060449
      2          6           0        1.397044   -0.527683   -0.026606
      3          1           0        1.190822    1.562927    0.094371
      4          1           0        2.467461   -0.523761   -0.036509
      5          1           0        0.895985   -1.472755   -0.045186
      6          8           0       -0.665466    0.704073    0.025844
      7          8           0       -1.227088   -0.253800    0.990582
      8          1           0       -2.071481   -0.443853    0.547630
 ---------------------------------------------------------------------

 Alpha  occ. eigenvalues --  -20.52769 -20.52178 -11.23833 -11.16843  -1.46720
 Alpha  occ. eigenvalues --   -1.23363  -1.03022  -0.78907  -0.70230  -0.67867
 Alpha  occ. eigenvalues --   -0.64436  -0.57690  -0.54113  -0.51784  -0.46310
 Alpha  occ. eigenvalues --   -0.36582
 Alpha virt. eigenvalues --    0.16578   0.25972   0.29312   0.30216   0.32610
 Alpha virt. eigenvalues --    0.37246   0.50130   0.57517   0.89018   0.97361
 Alpha virt. eigenvalues --    1.00357   1.07044   1.10349   1.12807   1.22636

 Mulliken charges:
               1
     1  C    0.144423
     2  C   -0.471801
     3  H    0.249318
     4  H    0.224349
     5  H    0.241688
     6  O   -0.421204
     7  O   -0.383353
     8  H    0.416581
 Sum of Mulliken charges =   0.00000

 Dipole moment (field-independent basis, Debye):
    X=              0.0612    Y=             -0.7173    Z=             -0.6722  Tot=              0.9849
 Quadrupole moment (field-independent basis, Debye-Ang):
   XX=            -16.7687   YY=            -22.0624   ZZ=            -27.1310
   XY=              2.9085   XZ=              0.2028   YZ=              0.2895

 Normal termination of Gaussian 09 at Fri Apr 12 17:11:08 2019.
