 Gaussian 09, Revision D.01,
 Gaussian 09:  AS64L-G09RevD.01 24-Apr-2013

 --------------------------------------------------------------------
 #p hf 3-21g scf=tight NoSymmetry guess=read opt=(tight,modredundant)
 --------------------------------------------------------------------

 -----------------------------------
 Geometry optimization at the 2D-PES
 -----------------------------------
 Symbolic Z-matrix:
 Charge =  0 Multiplicity = 1

 SCF Done:  E(RHF) =  -226.390352864     A.U. after   12 cycles
 SCF Done:  E(RHF) =  -226.390370492     A.U. after   12 cycles
 SCF Done:  E(RHF) =  -226.390381430     A.U. after   10 cycles
 SCF Done:  E(RHF) =  -226.390381548     A.U. after    9 cycles
 SCF Done:  E(RHF) =  -226.390381563     A.U. after    8 cycles
 SCF Done:  E(RHF) =  -226.390381564     A.U. after    7 cycles
 Optimization completed.
    -- Stationary point found.

                          Input orientation:
 ---------------------------------------------------------------------
 Center     Atomic      Atomic             Coordinates (Angstroms)
 Number     Number       Type             X           Y           Z
 ---------------------------------------------------------------------
      1          6           0        0.742970    0.632486    0.057349
      2          6           0        1.375727   -0.510607    0.003725
      3          1           0        1.225638    1.587304    0.111283
      4          1           0        2.445477   -0.544768   -0.020695
      5          1           0        0.835651   -1.434316   -0.032283
      6          8           0       -0.660495    0.681531   -0.018787
      7          8           0       -1.145017    1.507725    1.092693
      8          1           0       -1.000774    2.410862    0.755206
 ---------------------------------------------------------------------

 Alpha  occ. eigenvalues --  -20.53474 -20.52546 -11.24595 -11.17773  -1.47488
 Alpha  occ. eigenvalues --   -1.23719  -1.03585  -0.80616  -0.69867  -0.68947
 Alpha  occ. eigenvalues --   -0.64525  -0.56794  -0.56217  -0.49840  -0.48207
 Alpha  occ. eigenvalues --   -0.37735
 Alpha virt. eigenvalues --    0.16580   0.24626   0.26455   0.31200   0.33434
 Alpha virt. eigenvalues --    0.35390   0.49479   0.56605   0.89002   0.96681
 Alpha virt. eigenvalues --    0.98831   1.06358   1.09981   1.11202   1.24944

 Mulliken charges:
               1
     1  C    0.136350
     2  C   -0.472532
     3  H    0.224149
     4  H    0.228315
     5  H    0.251318
     6  O   -0.393416
     7  O   -0.375021
     8  H    0.400838
 Sum of Mulliken charges =   0.00000

 Dipole moment (field-independent basis, Debye):
    X=              2.2051    Y=              1.7285    Z=             -0.4784  Tot=              2.8423
 Quadrupole moment (field-independent basis, Debye-Ang):
   XX=            -23.6660   YY=            -14.4640   ZZ=            -27.0589
   XY=             -0.4602   XZ=              0.8900   YZ=              0.6554

 Normal termination of Gaussian 09 at Fri Apr 12 16:09:10 2019.
