 Gaussian 09, Revision D.01,
 Gaussian 09:  AS64L-G09RevD.01 24-Apr-2013

 --------------------------------------------------------------------
 #p hf 3-21g scf=tight NoSymmetry guess=read opt=(tight,modredundant)
 --------------------------------------------------------------------

 -----------------------------------
 Geometry optimization at the 2D-PES
 -----------------------------------
 Symbolic Z-matrix:
 Charge =  0 Multiplicity = 1

 SCF Done:  E(RHF) =  -226.382058544     A.U. after   12 cycles
 SCF Done:  E(RHF) =  -226.382092410     A.U. after   13 cycles
 SCF Done:  E(RHF) =  -226.382113468     A.U. after   11 cycles
 SCF Done:  E(RHF) =  -226.382114125     A.U. after   11 cycles
 SCF Done:  E(RHF) =  -226.382114177     A.U. after    8 cycles
 SCF Done:  E(RHF) =  -226.382114184     A.U. after    7 cycles
 Optimization completed.
    -- Stationary point found.

                          Input orientation:
 ---------------------------------------------------------------------
 Center     Atomic      Atomic             Coordinates (Angstroms)
 Number     Number       Type             X           Y           Z
 ---------------------------------------------------------------------
      1          6           0        0.739187    0.576732    0.022254
      2          6           0        1.447659   -0.527901    0.016217
      3          1           0        1.171762    1.553217    0.083339
      4          1           0        2.515380   -0.472937    0.047640
      5          1           0        1.016522   -1.509407    0.019065
      6          8           0       -0.649117    0.690588   -0.016358
      7          8           0       -1.323094   -0.397354   -0.732184
      8          1           0       -0.604467   -0.981699   -1.032569
 ---------------------------------------------------------------------

 Alpha  occ. eigenvalues --  -20.54340 -20.53096 -11.26510 -11.18674  -1.48177
 Alpha  occ. eigenvalues --   -1.24754  -1.05514  -0.81436  -0.73331  -0.68187
 Alpha  occ. eigenvalues --   -0.63514  -0.59021  -0.54888  -0.54368  -0.48194
 Alpha  occ. eigenvalues --   -0.37703
 Alpha virt. eigenvalues --    0.16222   0.22308   0.27225   0.28141   0.33762
 Alpha virt. eigenvalues --    0.36715   0.49647   0.58209   0.87637   0.95379
 Alpha virt. eigenvalues --    1.01083   1.05157   1.07831   1.11062   1.23178

 Mulliken charges:
               1
     1  C    0.140839
     2  C   -0.536053
     3  H    0.271031
     4  H    0.241904
     5  H    0.223193
     6  O   -0.389305
     7  O   -0.363599
     8  H    0.411989
 Sum of Mulliken charges =   0.00000

 Dipole moment (field-independent basis, Debye):
    X=              3.1699    Y=             -1.1419    Z=             -0.6271  Tot=              3.4272
 Quadrupole moment (field-independent basis, Debye-Ang):
   XX=            -25.7939   YY=            -20.4771   ZZ=            -24.6384
   XY=              1.8192   XZ=             -0.4475   YZ=              1.6677

 Normal termination of Gaussian 09 at Fri Apr 12 14:56:23 2019.
