 Gaussian 09, Revision D.01,
 Gaussian 09:  AS64L-G09RevD.01 24-Apr-2013

 --------------------------------------------------------------------
 #p hf 3-21g scf=tight NoSymmetry guess=read opt=(tight,modredundant)
 --------------------------------------------------------------------

 -----------------------------------
 Geometry optimization at the 2D-PES
 -----------------------------------
 Symbolic Z-matrix:
 Charge =  0 Multiplicity = 1

 SCF Done:  E(RHF) =  -226.395845776     A.U. after   13 cycles
 SCF Done:  E(RHF) =  -226.395852566     A.U. after   11 cycles
 SCF Done:  E(RHF) =  -226.395858013     A.U. after   10 cycles
 SCF Done:  E(RHF) =  -226.395858071     A.U. after    8 cycles
 SCF Done:  E(RHF) =  -226.395858072     A.U. after    6 cycles
 Optimization completed.
    -- Stationary point found.

                          Input orientation:
 ---------------------------------------------------------------------
 Center     Atomic      Atomic             Coordinates (Angstroms)
 Number     Number       Type             X           Y           Z
 ---------------------------------------------------------------------
      1          6           0        0.732144    0.636346    0.054569
      2          6           0        1.368905   -0.505790    0.000460
      3          1           0        1.194503    1.597220    0.118014
      4          1           0        2.438743   -0.529585   -0.017745
      5          1           0        0.839793   -1.435866   -0.036749
      6          8           0       -0.666922    0.678230   -0.014302
      7          8           0       -1.089207    1.850393    0.758694
      8          1           0       -1.683606    2.270409    0.114393
 ---------------------------------------------------------------------

 Alpha  occ. eigenvalues --  -20.53530 -20.52659 -11.24205 -11.16657  -1.47682
 Alpha  occ. eigenvalues --   -1.23934  -1.02791  -0.79710  -0.70278  -0.68235
 Alpha  occ. eigenvalues --   -0.65106  -0.56360  -0.55023  -0.52335  -0.47832
 Alpha  occ. eigenvalues --   -0.36248
 Alpha virt. eigenvalues --    0.18071   0.24186   0.27932   0.31989   0.33274
 Alpha virt. eigenvalues --    0.35949   0.49597   0.57529   0.90216   0.97136
 Alpha virt. eigenvalues --    1.00310   1.06629   1.10913   1.12766   1.22298

 Mulliken charges:
               1
     1  C    0.161996
     2  C   -0.498384
     3  H    0.250478
     4  H    0.226075
     5  H    0.241856
     6  O   -0.413607
     7  O   -0.384984
     8  H    0.416570
 Sum of Mulliken charges =   0.00000

 Dipole moment (field-independent basis, Debye):
    X=              0.5199    Y=              1.1695    Z=             -1.1704  Tot=              1.7343
 Quadrupole moment (field-independent basis, Debye-Ang):
   XX=            -19.5121   YY=            -17.9014   ZZ=            -26.9242
   XY=             -2.8169   XZ=              1.3835   YZ=             -2.1956

 Normal termination of Gaussian 09 at Fri Apr 12 15:58:26 2019.
