 Gaussian 09, Revision D.01,
 Gaussian 09:  AS64L-G09RevD.01 24-Apr-2013

 --------------------------------------------------------------------
 #p hf 3-21g scf=tight NoSymmetry guess=read opt=(tight,modredundant)
 --------------------------------------------------------------------

 -----------------------------------
 Geometry optimization at the 2D-PES
 -----------------------------------
 Symbolic Z-matrix:
 Charge =  0 Multiplicity = 1

 SCF Done:  E(RHF) =  -226.395563143     A.U. after   13 cycles
 SCF Done:  E(RHF) =  -226.395569417     A.U. after   11 cycles
 SCF Done:  E(RHF) =  -226.395574620     A.U. after   10 cycles
 SCF Done:  E(RHF) =  -226.395574689     A.U. after    8 cycles
 SCF Done:  E(RHF) =  -226.395574695     A.U. after    7 cycles
 Optimization completed.
    -- Stationary point found.

                          Input orientation:
 ---------------------------------------------------------------------
 Center     Atomic      Atomic             Coordinates (Angstroms)
 Number     Number       Type             X           Y           Z
 ---------------------------------------------------------------------
      1          6           0        0.725972    0.636023    0.030827
      2          6           0        1.368737   -0.503820   -0.014120
      3          1           0        1.182133    1.599419    0.091722
      4          1           0        2.438333   -0.519975    0.016194
      5          1           0        0.850284   -1.439012   -0.072549
      6          8           0       -0.674824    0.672348    0.034274
      7          8           0       -1.063755    2.070949   -0.154619
      8          1           0       -1.706345    1.972719   -0.877266
 ---------------------------------------------------------------------

 Alpha  occ. eigenvalues --  -20.53736 -20.52942 -11.24344 -11.16347  -1.47988
 Alpha  occ. eigenvalues --   -1.24115  -1.02730  -0.79829  -0.71399  -0.66770
 Alpha  occ. eigenvalues --   -0.64238  -0.59333  -0.55214  -0.50544  -0.48795
 Alpha  occ. eigenvalues --   -0.35899
 Alpha virt. eigenvalues --    0.19350   0.22534   0.27580   0.32036   0.34074
 Alpha virt. eigenvalues --    0.35945   0.49884   0.57738   0.90385   0.97071
 Alpha virt. eigenvalues --    1.00375   1.06548   1.10947   1.12815   1.21968

 Mulliken charges:
               1
     1  C    0.161782
     2  C   -0.511125
     3  H    0.264240
     4  H    0.226417
     5  H    0.236938
     6  O   -0.414017
     7  O   -0.384177
     8  H    0.419941
 Sum of Mulliken charges =   0.00000

 Dipole moment (field-independent basis, Debye):
    X=              0.3391    Y=              0.2765    Z=             -1.5858  Tot=              1.6450
 Quadrupole moment (field-independent basis, Debye-Ang):
   XX=            -19.2814   YY=            -22.3958   ZZ=            -24.0258
   XY=             -1.2543   XZ=              3.3252   YZ=             -2.9780

 Normal termination of Gaussian 09 at Fri Apr 12 15:36:54 2019.
