 Gaussian 09, Revision D.01,
 Gaussian 09:  AS64L-G09RevD.01 24-Apr-2013

 --------------------------------------------------------------------
 #p hf 3-21g scf=tight NoSymmetry guess=read opt=(tight,modredundant)
 --------------------------------------------------------------------

 -----------------------------------
 Geometry optimization at the 2D-PES
 -----------------------------------
 Symbolic Z-matrix:
 Charge =  0 Multiplicity = 1

 SCF Done:  E(RHF) =  -226.395481368     A.U. after   13 cycles
 SCF Done:  E(RHF) =  -226.395481606     A.U. after   10 cycles
 SCF Done:  E(RHF) =  -226.395481684     A.U. after    9 cycles
 SCF Done:  E(RHF) =  -226.395481688     A.U. after    6 cycles
 SCF Done:  E(RHF) =  -226.395481689     A.U. after    6 cycles
 Optimization completed.
    -- Stationary point found.

                          Input orientation:
 ---------------------------------------------------------------------
 Center     Atomic      Atomic             Coordinates (Angstroms)
 Number     Number       Type             X           Y           Z
 ---------------------------------------------------------------------
      1          6           0        0.724700    0.632760    0.052490
      2          6           0        1.367023   -0.506326    0.005535
      3          1           0        1.184653    1.594561    0.127422
      4          1           0        2.437242   -0.528711   -0.006146
      5          1           0        0.839884   -1.437105   -0.042634
      6          8           0       -0.674012    0.669299   -0.027166
      7          8           0       -1.106964    1.510323    1.104622
      8          1           0       -2.062966    1.340002    1.064318
 ---------------------------------------------------------------------

 Alpha  occ. eigenvalues --  -20.52887 -20.51900 -11.23930 -11.17105  -1.46716
 Alpha  occ. eigenvalues --   -1.23505  -1.02840  -0.79478  -0.69718  -0.67841
 Alpha  occ. eigenvalues --   -0.63624  -0.58814  -0.55732  -0.50657  -0.45699
 Alpha  occ. eigenvalues --   -0.37095
 Alpha virt. eigenvalues --    0.16956   0.26046   0.28485   0.31664   0.32670
 Alpha virt. eigenvalues --    0.36136   0.49683   0.57221   0.89767   0.97427
 Alpha virt. eigenvalues --    0.99701   1.07178   1.10621   1.12255   1.23776

 Mulliken charges:
               1
     1  C    0.162807
     2  C   -0.482320
     3  H    0.248833
     4  H    0.226684
     5  H    0.240423
     6  O   -0.420416
     7  O   -0.395365
     8  H    0.419353
 Sum of Mulliken charges =   0.00000

 Dipole moment (field-independent basis, Debye):
    X=             -0.1340    Y=             -0.2873    Z=              0.1804  Tot=              0.3647
 Quadrupole moment (field-independent basis, Debye-Ang):
   XX=            -16.2133   YY=            -23.0186   ZZ=            -25.8840
   XY=             -1.1403   XZ=             -2.3255   YZ=             -0.1063

 Normal termination of Gaussian 09 at Fri Apr 12 16:12:19 2019.
