 Gaussian 09, Revision D.01,
 Gaussian 09:  AS64L-G09RevD.01 24-Apr-2013

 --------------------------------------------------------------------
 #p hf 3-21g scf=tight NoSymmetry guess=read opt=(tight,modredundant)
 --------------------------------------------------------------------

 -----------------------------------
 Geometry optimization at the 2D-PES
 -----------------------------------
 Symbolic Z-matrix:
 Charge =  0 Multiplicity = 1

 SCF Done:  E(RHF) =  -226.386662730     A.U. after   12 cycles
 SCF Done:  E(RHF) =  -226.386688503     A.U. after   12 cycles
 SCF Done:  E(RHF) =  -226.386708281     A.U. after   12 cycles
 SCF Done:  E(RHF) =  -226.386708489     A.U. after    9 cycles
 SCF Done:  E(RHF) =  -226.386708528     A.U. after    9 cycles
 SCF Done:  E(RHF) =  -226.386708529     A.U. after    7 cycles
 Optimization completed.
    -- Stationary point found.

                          Input orientation:
 ---------------------------------------------------------------------
 Center     Atomic      Atomic             Coordinates (Angstroms)
 Number     Number       Type             X           Y           Z
 ---------------------------------------------------------------------
      1          6           0        0.752269    0.633638    0.060155
      2          6           0        1.377961   -0.513578    0.002113
      3          1           0        1.248084    1.582667    0.103002
      4          1           0        2.447239   -0.550583   -0.026254
      5          1           0        0.835729   -1.436212   -0.028047
      6          8           0       -0.648310    0.693352   -0.014427
      7          8           0       -1.134524    1.847339    0.744785
      8          1           0       -0.705402    2.601929    0.300020
 ---------------------------------------------------------------------

 Alpha  occ. eigenvalues --  -20.53974 -20.53056 -11.25221 -11.17628  -1.48031
 Alpha  occ. eigenvalues --   -1.24214  -1.03811  -0.81294  -0.70990  -0.68171
 Alpha  occ. eigenvalues --   -0.64661  -0.57076  -0.55948  -0.51741  -0.48655
 Alpha  occ. eigenvalues --   -0.37118
 Alpha virt. eigenvalues --    0.17450   0.23095   0.24901   0.31208   0.34072
 Alpha virt. eigenvalues --    0.35362   0.50254   0.56594   0.89094   0.96281
 Alpha virt. eigenvalues --    0.99046   1.05945   1.10017   1.11017   1.24489

 Mulliken charges:
               1
     1  C    0.137435
     2  C   -0.486256
     3  H    0.225119
     4  H    0.229367
     5  H    0.250236
     6  O   -0.388322
     7  O   -0.366626
     8  H    0.399047
 Sum of Mulliken charges =   0.00000

 Dipole moment (field-independent basis, Debye):
    X=              2.6862    Y=              1.5533    Z=             -0.7316  Tot=              3.1880
 Quadrupole moment (field-independent basis, Debye-Ang):
   XX=            -24.6443   YY=            -14.8386   ZZ=            -26.7355
   XY=              1.6116   XZ=              1.1624   YZ=             -1.0013

 Normal termination of Gaussian 09 at Fri Apr 12 15:56:16 2019.
