 Gaussian 09, Revision D.01,
 Gaussian 09:  AS64L-G09RevD.01 24-Apr-2013

 --------------------------------------------------------------------
 #p hf 3-21g scf=tight NoSymmetry guess=read opt=(tight,modredundant)
 --------------------------------------------------------------------

 -----------------------------------
 Geometry optimization at the 2D-PES
 -----------------------------------
 Symbolic Z-matrix:
 Charge =  0 Multiplicity = 1

 SCF Done:  E(RHF) =  -226.391734238     A.U. after   12 cycles
 SCF Done:  E(RHF) =  -226.391738795     A.U. after   11 cycles
 SCF Done:  E(RHF) =  -226.391741144     A.U. after   10 cycles
 SCF Done:  E(RHF) =  -226.391741194     A.U. after    8 cycles
 SCF Done:  E(RHF) =  -226.391741196     A.U. after    6 cycles
 Optimization completed.
    -- Stationary point found.

                          Input orientation:
 ---------------------------------------------------------------------
 Center     Atomic      Atomic             Coordinates (Angstroms)
 Number     Number       Type             X           Y           Z
 ---------------------------------------------------------------------
      1          6           0        0.728248    0.617245    0.046237
      2          6           0        1.378994   -0.515782   -0.008809
      3          1           0        1.197317    1.575926    0.116340
      4          1           0        2.449665   -0.532753    0.003394
      5          1           0        0.861651   -1.452063   -0.062452
      6          8           0       -0.678512    0.677468   -0.008083
      7          8           0       -1.178463    0.350983    1.343362
      8          1           0       -2.027341   -0.054183    1.096886
 ---------------------------------------------------------------------

 Alpha  occ. eigenvalues --  -20.52133 -20.51537 -11.23624 -11.17723  -1.45921
 Alpha  occ. eigenvalues --   -1.22885  -1.03209  -0.79033  -0.68997  -0.68565
 Alpha  occ. eigenvalues --   -0.63956  -0.57747  -0.55266  -0.50521  -0.44307
 Alpha  occ. eigenvalues --   -0.38181
 Alpha virt. eigenvalues --    0.15304   0.27393   0.29399   0.30466   0.31713
 Alpha virt. eigenvalues --    0.36796   0.49706   0.56776   0.88850   0.97464
 Alpha virt. eigenvalues --    0.99009   1.06808   1.10069   1.12653   1.23366

 Mulliken charges:
               1
     1  C    0.140107
     2  C   -0.450709
     3  H    0.239715
     4  H    0.228067
     5  H    0.239305
     6  O   -0.421160
     7  O   -0.388784
     8  H    0.413458
 Sum of Mulliken charges =   0.00000

 Dipole moment (field-independent basis, Debye):
    X=              0.2684    Y=             -1.1595    Z=             -0.1993  Tot=              1.2067
 Quadrupole moment (field-independent basis, Debye-Ang):
   XX=            -16.8377   YY=            -22.4949   ZZ=            -26.8960
   XY=              2.4853   XZ=             -1.4388   YZ=             -0.7656

 Normal termination of Gaussian 09 at Fri Apr 12 16:44:22 2019.
