 Gaussian 09, Revision D.01,
 Gaussian 09:  AS64L-G09RevD.01 24-Apr-2013

 --------------------------------------------------------------------
 #p hf 3-21g scf=tight NoSymmetry guess=read opt=(tight,modredundant)
 --------------------------------------------------------------------

 -----------------------------------
 Geometry optimization at the 2D-PES
 -----------------------------------
 Symbolic Z-matrix:
 Charge =  0 Multiplicity = 1

 SCF Done:  E(RHF) =  -226.394334276     A.U. after   13 cycles
 SCF Done:  E(RHF) =  -226.394335319     A.U. after   10 cycles
 SCF Done:  E(RHF) =  -226.394335701     A.U. after    9 cycles
 SCF Done:  E(RHF) =  -226.394335727     A.U. after    7 cycles
 SCF Done:  E(RHF) =  -226.394335728     A.U. after    6 cycles
 Optimization completed.
    -- Stationary point found.

                          Input orientation:
 ---------------------------------------------------------------------
 Center     Atomic      Atomic             Coordinates (Angstroms)
 Number     Number       Type             X           Y           Z
 ---------------------------------------------------------------------
      1          6           0        0.724486    0.629439    0.044528
      2          6           0        1.367332   -0.508916    0.003814
      3          1           0        1.188378    1.588759    0.132427
      4          1           0        2.437824   -0.534098    0.008646
      5          1           0        0.837923   -1.437951   -0.052248
      6          8           0       -0.678381    0.665795   -0.030133
      7          8           0       -1.131332    1.072961    1.316325
      8          1           0       -2.070752    1.228762    1.119897
 ---------------------------------------------------------------------

 Alpha  occ. eigenvalues --  -20.52403 -20.51536 -11.23645 -11.17488  -1.46146
 Alpha  occ. eigenvalues --   -1.23090  -1.02944  -0.79203  -0.68923  -0.68393
 Alpha  occ. eigenvalues --   -0.64221  -0.57196  -0.55428  -0.51280  -0.44276
 Alpha  occ. eigenvalues --   -0.37936
 Alpha virt. eigenvalues --    0.15992   0.27450   0.28913   0.31202   0.32160
 Alpha virt. eigenvalues --    0.36312   0.49455   0.57039   0.89387   0.97486
 Alpha virt. eigenvalues --    0.99510   1.07176   1.10564   1.12299   1.23762

 Mulliken charges:
               1
     1  C    0.149317
     2  C   -0.460557
     3  H    0.238519
     4  H    0.226723
     5  H    0.245206
     6  O   -0.419917
     7  O   -0.394837
     8  H    0.415546
 Sum of Mulliken charges =   0.00000

 Dipole moment (field-independent basis, Debye):
    X=              0.0306    Y=              0.1885    Z=             -0.1290  Tot=              0.2304
 Quadrupole moment (field-independent basis, Debye-Ang):
   XX=            -16.2393   YY=            -21.3133   ZZ=            -26.7021
   XY=             -1.8244   XZ=             -1.9017   YZ=              0.3454

 Normal termination of Gaussian 09 at Fri Apr 12 16:25:04 2019.
