 Gaussian 09, Revision D.01,
 Gaussian 09:  AS64L-G09RevD.01 24-Apr-2013

 --------------------------------------------------------------------
 #p hf 3-21g scf=tight NoSymmetry guess=read opt=(tight,modredundant)
 --------------------------------------------------------------------

 -----------------------------------
 Geometry optimization at the 2D-PES
 -----------------------------------
 Symbolic Z-matrix:
 Charge =  0 Multiplicity = 1

 SCF Done:  E(RHF) =  -226.381686132     A.U. after   14 cycles
 SCF Done:  E(RHF) =  -226.381796482     A.U. after   13 cycles
 SCF Done:  E(RHF) =  -226.381822543     A.U. after   12 cycles
 SCF Done:  E(RHF) =  -226.381823782     A.U. after    9 cycles
 SCF Done:  E(RHF) =  -226.381824057     A.U. after    8 cycles
 SCF Done:  E(RHF) =  -226.381824067     A.U. after    7 cycles
 SCF Done:  E(RHF) =  -226.381824068     A.U. after    6 cycles
 Optimization completed.
    -- Stationary point found.

                          Input orientation:
 ---------------------------------------------------------------------
 Center     Atomic      Atomic             Coordinates (Angstroms)
 Number     Number       Type             X           Y           Z
 ---------------------------------------------------------------------
      1          6           0        0.749890    0.594433    0.037302
      2          6           0        1.422185   -0.530497   -0.029156
      3          1           0        1.206312    1.561523    0.066975
      4          1           0        2.492238   -0.521668   -0.028612
      5          1           0        0.933399   -1.481844   -0.108705
      6          8           0       -0.649441    0.686345    0.033491
      7          8           0       -1.272825   -0.215323    1.018526
      8          1           0       -0.517196   -0.665947    1.440343
 ---------------------------------------------------------------------

 Alpha  occ. eigenvalues --  -20.53472 -20.52568 -11.26017 -11.19170  -1.47265
 Alpha  occ. eigenvalues --   -1.24010  -1.05432  -0.81252  -0.72620  -0.67985
 Alpha  occ. eigenvalues --   -0.61888  -0.59520  -0.55719  -0.53648  -0.46532
 Alpha  occ. eigenvalues --   -0.38441
 Alpha virt. eigenvalues --    0.14664   0.24108   0.27640   0.29021   0.31115
 Alpha virt. eigenvalues --    0.36636   0.49977   0.55812   0.87369   0.95808
 Alpha virt. eigenvalues --    0.99976   1.04614   1.08006   1.11207   1.23043

 Mulliken charges:
               1
     1  C    0.111513
     2  C   -0.506919
     3  H    0.262139
     4  H    0.239637
     5  H    0.242821
     6  O   -0.386467
     7  O   -0.366438
     8  H    0.403715
 Sum of Mulliken charges =   0.00000

 Dipole moment (field-independent basis, Debye):
    X=              3.4374    Y=             -1.0447    Z=              0.9570  Tot=              3.7179
 Quadrupole moment (field-independent basis, Debye-Ang):
   XX=            -25.5697   YY=            -21.3387   ZZ=            -23.4432
   XY=              1.5710   XZ=              1.0269   YZ=             -1.3370

 Normal termination of Gaussian 09 at Fri Apr 12 17:05:35 2019.
