 Gaussian 09, Revision D.01,
 Gaussian 09:  AS64L-G09RevD.01 24-Apr-2013

 --------------------------------------------------------------------
 #p hf 3-21g scf=tight NoSymmetry guess=read opt=(tight,modredundant)
 --------------------------------------------------------------------

 -----------------------------------
 Geometry optimization at the 2D-PES
 -----------------------------------
 Symbolic Z-matrix:
 Charge =  0 Multiplicity = 1

 SCF Done:  E(RHF) =  -226.386992528     A.U. after   13 cycles
 SCF Done:  E(RHF) =  -226.387004591     A.U. after   12 cycles
 SCF Done:  E(RHF) =  -226.387013817     A.U. after   12 cycles
 SCF Done:  E(RHF) =  -226.387013949     A.U. after    9 cycles
 SCF Done:  E(RHF) =  -226.387013969     A.U. after    8 cycles
 SCF Done:  E(RHF) =  -226.387013970     A.U. after    6 cycles
 Optimization completed.
    -- Stationary point found.

                          Input orientation:
 ---------------------------------------------------------------------
 Center     Atomic      Atomic             Coordinates (Angstroms)
 Number     Number       Type             X           Y           Z
 ---------------------------------------------------------------------
      1          6           0        0.748102    0.598443    0.052076
      2          6           0        1.410666   -0.528249   -0.025686
      3          1           0        1.202489    1.567327    0.072755
      4          1           0        2.481206   -0.529762   -0.032376
      5          1           0        0.900770   -1.469050   -0.066306
      6          8           0       -0.657887    0.696054    0.029187
      7          8           0       -1.249041   -0.235039    0.998781
      8          1           0       -0.750252   -0.045203    1.815522
 ---------------------------------------------------------------------

 Alpha  occ. eigenvalues --  -20.53280 -20.52505 -11.24845 -11.18346  -1.47247
 Alpha  occ. eigenvalues --   -1.23455  -1.04438  -0.80810  -0.70358  -0.68877
 Alpha  occ. eigenvalues --   -0.62049  -0.58333  -0.57309  -0.50983  -0.46582
 Alpha  occ. eigenvalues --   -0.38175
 Alpha virt. eigenvalues --    0.15126   0.25669   0.28080   0.28888   0.31587
 Alpha virt. eigenvalues --    0.36825   0.49695   0.56293   0.87554   0.96767
 Alpha virt. eigenvalues --    0.98429   1.05706   1.09114   1.10633   1.24401

 Mulliken charges:
               1
     1  C    0.085960
     2  C   -0.472200
     3  H    0.253102
     4  H    0.230798
     5  H    0.257554
     6  O   -0.384938
     7  O   -0.370863
     8  H    0.400587
 Sum of Mulliken charges =   0.00000

 Dipole moment (field-independent basis, Debye):
    X=              2.9420    Y=              0.0534    Z=              1.8039  Tot=              3.4514
 Quadrupole moment (field-independent basis, Debye-Ang):
   XX=            -24.9894   YY=            -22.3869   ZZ=            -20.6669
   XY=              0.7315   XZ=             -0.3276   YZ=              0.5829

 Normal termination of Gaussian 09 at Fri Apr 12 17:07:06 2019.
