 Gaussian 09, Revision D.01,
 Gaussian 09:  AS64L-G09RevD.01 24-Apr-2013

 --------------------------------------------------------------------
 #p hf 3-21g scf=tight NoSymmetry guess=read opt=(tight,modredundant)
 --------------------------------------------------------------------

 -----------------------------------
 Geometry optimization at the 2D-PES
 -----------------------------------
 Symbolic Z-matrix:
 Charge =  0 Multiplicity = 1

 SCF Done:  E(RHF) =  -226.394059513     A.U. after   13 cycles
 SCF Done:  E(RHF) =  -226.394071030     A.U. after   12 cycles
 SCF Done:  E(RHF) =  -226.394082079     A.U. after   11 cycles
 SCF Done:  E(RHF) =  -226.394082144     A.U. after    9 cycles
 SCF Done:  E(RHF) =  -226.394082151     A.U. after    8 cycles
 Optimization completed.
    -- Stationary point found.

                          Input orientation:
 ---------------------------------------------------------------------
 Center     Atomic      Atomic             Coordinates (Angstroms)
 Number     Number       Type             X           Y           Z
 ---------------------------------------------------------------------
      1          6           0        0.737120    0.584556    0.067206
      2          6           0        1.412850   -0.530978   -0.035413
      3          1           0        1.184349    1.556335    0.091264
      4          1           0        2.482541   -0.510238   -0.061499
      5          1           0        0.930267   -1.485340   -0.042106
      6          8           0       -0.659396    0.706554    0.045811
      7          8           0       -1.258704   -0.391862    0.805657
      8          1           0       -1.796418   -0.812332    0.112819
 ---------------------------------------------------------------------

 Alpha  occ. eigenvalues --  -20.53408 -20.52712 -11.24267 -11.16840  -1.47531
 Alpha  occ. eigenvalues --   -1.23753  -1.03349  -0.79294  -0.69886  -0.69404
 Alpha  occ. eigenvalues --   -0.64985  -0.57029  -0.54010  -0.51970  -0.47837
 Alpha  occ. eigenvalues --   -0.36598
 Alpha virt. eigenvalues --    0.17132   0.24608   0.29129   0.29810   0.32778
 Alpha virt. eigenvalues --    0.37190   0.49919   0.57694   0.88812   0.96915
 Alpha virt. eigenvalues --    1.00288   1.06895   1.10080   1.12593   1.22776

 Mulliken charges:
               1
     1  C    0.147840
     2  C   -0.487002
     3  H    0.255243
     4  H    0.225794
     5  H    0.232765
     6  O   -0.413290
     7  O   -0.376098
     8  H    0.414748
 Sum of Mulliken charges =   0.00000

 Dipole moment (field-independent basis, Debye):
    X=              0.6055    Y=             -1.1106    Z=             -1.2410  Tot=              1.7721
 Quadrupole moment (field-independent basis, Debye-Ang):
   XX=            -19.4305   YY=            -21.2430   ZZ=            -27.0162
   XY=              3.8177   XZ=              1.8347   YZ=              0.7790

 Normal termination of Gaussian 09 at Fri Apr 12 17:16:13 2019.
