 Gaussian 09, Revision D.01,
 Gaussian 09:  AS64L-G09RevD.01 24-Apr-2013

 --------------------------------------------------------------------
 #p hf 3-21g scf=tight NoSymmetry guess=read opt=(tight,modredundant)
 --------------------------------------------------------------------

 -----------------------------------
 Geometry optimization at the 2D-PES
 -----------------------------------
 Symbolic Z-matrix:
 Charge =  0 Multiplicity = 1

 SCF Done:  E(RHF) =  -226.388354934     A.U. after   13 cycles
 SCF Done:  E(RHF) =  -226.388379833     A.U. after   13 cycles
 SCF Done:  E(RHF) =  -226.388408169     A.U. after   12 cycles
 SCF Done:  E(RHF) =  -226.388408618     A.U. after    9 cycles
 SCF Done:  E(RHF) =  -226.388408704     A.U. after    9 cycles
 SCF Done:  E(RHF) =  -226.388408708     A.U. after    8 cycles
 SCF Done:  E(RHF) =  -226.388408709     A.U. after    7 cycles
 Optimization completed.
    -- Stationary point found.

                          Input orientation:
 ---------------------------------------------------------------------
 Center     Atomic      Atomic             Coordinates (Angstroms)
 Number     Number       Type             X           Y           Z
 ---------------------------------------------------------------------
      1          6           0        0.745178    0.582850    0.042328
      2          6           0        1.427012   -0.534301   -0.034164
      3          1           0        1.184280    1.557916    0.074078
      4          1           0        2.496632   -0.511904   -0.034301
      5          1           0        0.943873   -1.486413   -0.110800
      6          8           0       -0.649348    0.695193    0.040898
      7          8           0       -1.281794   -0.484614    0.634073
      8          1           0       -0.700234   -0.691761    1.391418
 ---------------------------------------------------------------------

 Alpha  occ. eigenvalues --  -20.54195 -20.53103 -11.25696 -11.18120  -1.48236
 Alpha  occ. eigenvalues --   -1.24220  -1.04851  -0.81081  -0.71758  -0.68662
 Alpha  occ. eigenvalues --   -0.63677  -0.57579  -0.56730  -0.52697  -0.47882
 Alpha  occ. eigenvalues --   -0.37682
 Alpha virt. eigenvalues --    0.16547   0.23641   0.27922   0.28804   0.31719
 Alpha virt. eigenvalues --    0.36722   0.49580   0.57011   0.87658   0.96454
 Alpha virt. eigenvalues --    0.99764   1.05232   1.08591   1.10928   1.23874

 Mulliken charges:
               1
     1  C    0.115436
     2  C   -0.514733
     3  H    0.265266
     4  H    0.233424
     5  H    0.246900
     6  O   -0.385346
     7  O   -0.365195
     8  H    0.404248
 Sum of Mulliken charges =   0.00000

 Dipole moment (field-independent basis, Debye):
    X=              2.9159    Y=             -0.5278    Z=              1.5959  Tot=              3.3657
 Quadrupole moment (field-independent basis, Debye-Ang):
   XX=            -25.4080   YY=            -21.7387   ZZ=            -22.3980
   XY=              1.2751   XZ=             -0.3976   YZ=             -1.1868

 Normal termination of Gaussian 09 at Fri Apr 12 17:23:35 2019.
