 Gaussian 09, Revision D.01,
 Gaussian 09:  AS64L-G09RevD.01 24-Apr-2013

 --------------------------------------------------------------------
 #p hf 3-21g scf=tight NoSymmetry guess=read opt=(tight,modredundant)
 --------------------------------------------------------------------

 -----------------------------------
 Geometry optimization at the 2D-PES
 -----------------------------------
 Symbolic Z-matrix:
 Charge =  0 Multiplicity = 1

 SCF Done:  E(RHF) =  -226.379671466     A.U. after   13 cycles
 SCF Done:  E(RHF) =  -226.379703699     A.U. after   13 cycles
 SCF Done:  E(RHF) =  -226.379711006     A.U. after   10 cycles
 SCF Done:  E(RHF) =  -226.379711274     A.U. after    9 cycles
 SCF Done:  E(RHF) =  -226.379711320     A.U. after    8 cycles
 SCF Done:  E(RHF) =  -226.379711324     A.U. after    7 cycles
 Optimization completed.
    -- Stationary point found.

                          Input orientation:
 ---------------------------------------------------------------------
 Center     Atomic      Atomic             Coordinates (Angstroms)
 Number     Number       Type             X           Y           Z
 ---------------------------------------------------------------------
      1          6           0        0.768915    0.628699    0.065158
      2          6           0        1.384549   -0.524325    0.004540
      3          1           0        1.277943    1.573564    0.074129
      4          1           0        2.453401   -0.570304   -0.027463
      5          1           0        0.833718   -1.441805   -0.027807
      6          8           0       -0.627953    0.702266   -0.015126
      7          8           0       -1.159259    1.850135    0.737266
      8          1           0       -0.379736    2.292291    1.119885
 ---------------------------------------------------------------------

 Alpha  occ. eigenvalues --  -20.53933 -20.52835 -11.25718 -11.18269  -1.47570
 Alpha  occ. eigenvalues --   -1.24460  -1.04347  -0.82053  -0.71863  -0.67316
 Alpha  occ. eigenvalues --   -0.62845  -0.59151  -0.55615  -0.52976  -0.47803
 Alpha  occ. eigenvalues --   -0.37265
 Alpha virt. eigenvalues --    0.15870   0.23579   0.24922   0.30679   0.33676
 Alpha virt. eigenvalues --    0.35287   0.50391   0.56082   0.88461   0.95885
 Alpha virt. eigenvalues --    0.99216   1.05802   1.09653   1.11105   1.23308

 Mulliken charges:
               1
     1  C    0.107132
     2  C   -0.478746
     3  H    0.230610
     4  H    0.232126
     5  H    0.253938
     6  O   -0.377596
     7  O   -0.366658
     8  H    0.399194
 Sum of Mulliken charges =   0.00000

 Dipole moment (field-independent basis, Debye):
    X=              3.4358    Y=              0.8028    Z=              0.9054  Tot=              3.6427
 Quadrupole moment (field-independent basis, Debye-Ang):
   XX=            -25.2819   YY=            -18.1778   ZZ=            -24.2496
   XY=              3.7091   XZ=              0.7249   YZ=              2.8522

 Normal termination of Gaussian 09 at Fri Apr 12 15:54:39 2019.
