 Gaussian 09, Revision D.01,
 Gaussian 09:  AS64L-G09RevD.01 24-Apr-2013

 --------------------------------------------------------------------
 #p hf 3-21g scf=tight NoSymmetry guess=read opt=(tight,modredundant)
 --------------------------------------------------------------------

 -----------------------------------
 Geometry optimization at the 2D-PES
 -----------------------------------
 Symbolic Z-matrix:
 Charge =  0 Multiplicity = 1

 SCF Done:  E(RHF) =  -226.382147189     A.U. after   13 cycles
 SCF Done:  E(RHF) =  -226.382164008     A.U. after   13 cycles
 SCF Done:  E(RHF) =  -226.382181136     A.U. after   12 cycles
 SCF Done:  E(RHF) =  -226.382181220     A.U. after    9 cycles
 SCF Done:  E(RHF) =  -226.382181226     A.U. after    8 cycles
 SCF Done:  E(RHF) =  -226.382181226     A.U. after    6 cycles
 Optimization completed.
    -- Stationary point found.

                          Input orientation:
 ---------------------------------------------------------------------
 Center     Atomic      Atomic             Coordinates (Angstroms)
 Number     Number       Type             X           Y           Z
 ---------------------------------------------------------------------
      1          6           0        0.738538    0.593262    0.015004
      2          6           0        1.427168   -0.522054    0.011516
      3          1           0        1.190330    1.560451    0.084083
      4          1           0        2.495740   -0.491008    0.057334
      5          1           0        0.976160   -1.494998   -0.017700
      6          8           0       -0.661837    0.693568   -0.013356
      7          8           0       -1.269614   -0.116078   -1.076375
      8          1           0       -0.755134   -0.941231   -1.073654
 ---------------------------------------------------------------------

 Alpha  occ. eigenvalues --  -20.53597 -20.52795 -11.25858 -11.18993  -1.47505
 Alpha  occ. eigenvalues --   -1.24103  -1.05301  -0.80940  -0.73069  -0.67442
 Alpha  occ. eigenvalues --   -0.63961  -0.59063  -0.55406  -0.52386  -0.47381
 Alpha  occ. eigenvalues --   -0.38322
 Alpha virt. eigenvalues --    0.15075   0.22399   0.27582   0.28499   0.34331
 Alpha virt. eigenvalues --    0.36681   0.50135   0.57258   0.87657   0.95448
 Alpha virt. eigenvalues --    1.00062   1.05272   1.08312   1.10829   1.24403

 Mulliken charges:
               1
     1  C    0.134709
     2  C   -0.507194
     3  H    0.262801
     4  H    0.242299
     5  H    0.217475
     6  O   -0.392448
     7  O   -0.364049
     8  H    0.406406
 Sum of Mulliken charges =   0.00000

 Dipole moment (field-independent basis, Debye):
    X=              2.9198    Y=             -1.7174    Z=             -0.1128  Tot=              3.3893
 Quadrupole moment (field-independent basis, Debye-Ang):
   XX=            -24.9656   YY=            -20.3020   ZZ=            -25.7038
   XY=              2.6952   XZ=             -0.8247   YZ=              1.9483

 Normal termination of Gaussian 09 at Fri Apr 12 14:51:30 2019.
