 Gaussian 09, Revision D.01,
 Gaussian 09:  AS64L-G09RevD.01 24-Apr-2013

 --------------------------------------------------------------------
 #p hf 3-21g scf=tight NoSymmetry guess=read opt=(tight,modredundant)
 --------------------------------------------------------------------

 -----------------------------------
 Geometry optimization at the 2D-PES
 -----------------------------------
 Symbolic Z-matrix:
 Charge =  0 Multiplicity = 1

 SCF Done:  E(RHF) =  -226.379680387     A.U. after   13 cycles
 SCF Done:  E(RHF) =  -226.379704342     A.U. after   11 cycles
 SCF Done:  E(RHF) =  -226.379710990     A.U. after   11 cycles
 SCF Done:  E(RHF) =  -226.379711274     A.U. after    9 cycles
 SCF Done:  E(RHF) =  -226.379711324     A.U. after    8 cycles
 SCF Done:  E(RHF) =  -226.379711326     A.U. after    6 cycles
 Optimization completed.
    -- Stationary point found.

                          Input orientation:
 ---------------------------------------------------------------------
 Center     Atomic      Atomic             Coordinates (Angstroms)
 Number     Number       Type             X           Y           Z
 ---------------------------------------------------------------------
      1          6           0        0.764125    0.633271    0.014756
      2          6           0        1.387842   -0.516772   -0.007901
      3          1           0        1.263601    1.577375    0.120369
      4          1           0        2.454556   -0.559713    0.068642
      5          1           0        0.845267   -1.436107   -0.089546
      6          8           0       -0.635601    0.690975    0.037473
      7          8           0       -1.143780    1.903330   -0.624301
      8          1           0       -0.352209    2.384779   -0.926258
 ---------------------------------------------------------------------

 Alpha  occ. eigenvalues --  -20.53933 -20.52835 -11.25717 -11.18269  -1.47570
 Alpha  occ. eigenvalues --   -1.24460  -1.04347  -0.82052  -0.71863  -0.67316
 Alpha  occ. eigenvalues --   -0.62845  -0.59151  -0.55615  -0.52976  -0.47803
 Alpha  occ. eigenvalues --   -0.37265
 Alpha virt. eigenvalues --    0.15870   0.23579   0.24922   0.30679   0.33676
 Alpha virt. eigenvalues --    0.35287   0.50391   0.56082   0.88461   0.95885
 Alpha virt. eigenvalues --    0.99216   1.05803   1.09653   1.11105   1.23308

 Mulliken charges:
               1
     1  C    0.107139
     2  C   -0.478749
     3  H    0.230609
     4  H    0.232127
     5  H    0.253937
     6  O   -0.377600
     7  O   -0.366656
     8  H    0.399194
 Sum of Mulliken charges =   0.00000

 Dipole moment (field-independent basis, Debye):
    X=              3.4650    Y=              0.9058    Z=             -0.6649  Tot=              3.6426
 Quadrupole moment (field-independent basis, Debye-Ang):
   XX=            -25.2946   YY=            -17.6489   ZZ=            -24.7538
   XY=              3.8062   XZ=             -0.4318   YZ=             -2.0554

 Normal termination of Gaussian 09 at Fri Apr 12 15:25:37 2019.
