 Gaussian 09, Revision D.01,
 Gaussian 09:  AS64L-G09RevD.01 24-Apr-2013

 --------------------------------------------------------------------
 #p hf 3-21g scf=tight NoSymmetry guess=read opt=(tight,modredundant)
 --------------------------------------------------------------------

 -----------------------------------
 Geometry optimization at the 2D-PES
 -----------------------------------
 Symbolic Z-matrix:
 Charge =  0 Multiplicity = 1

 SCF Done:  E(RHF) =  -226.397643761     A.U. after   13 cycles
 SCF Done:  E(RHF) =  -226.397645929     A.U. after   11 cycles
 SCF Done:  E(RHF) =  -226.397649141     A.U. after   10 cycles
 SCF Done:  E(RHF) =  -226.397649177     A.U. after    8 cycles
 SCF Done:  E(RHF) =  -226.397649179     A.U. after    6 cycles
 Optimization completed.
    -- Stationary point found.

                          Input orientation:
 ---------------------------------------------------------------------
 Center     Atomic      Atomic             Coordinates (Angstroms)
 Number     Number       Type             X           Y           Z
 ---------------------------------------------------------------------
      1          6           0        0.732274    0.575326    0.050305
      2          6           0        1.414993   -0.536772   -0.044430
      3          1           0        1.169958    1.551208    0.094311
      4          1           0        2.484669   -0.503566   -0.057543
      5          1           0        0.934720   -1.489836   -0.080388
      6          8           0       -0.655274    0.711973    0.047854
      7          8           0       -1.260913   -0.574388    0.398899
      8          1           0       -2.152401   -0.425692    0.042032
 ---------------------------------------------------------------------

 Alpha  occ. eigenvalues --  -20.53683 -20.52658 -11.24113 -11.15805  -1.47682
 Alpha  occ. eigenvalues --   -1.23986  -1.02724  -0.79005  -0.71599  -0.66086
 Alpha  occ. eigenvalues --   -0.64578  -0.59779  -0.53550  -0.51474  -0.47893
 Alpha  occ. eigenvalues --   -0.35561
 Alpha virt. eigenvalues --    0.19247   0.23825   0.28755   0.30494   0.34013
 Alpha virt. eigenvalues --    0.37435   0.50193   0.58925   0.89359   0.97455
 Alpha virt. eigenvalues --    1.01120   1.07578   1.10694   1.12870   1.23334

 Mulliken charges:
               1
     1  C    0.155529
     2  C   -0.501923
     3  H    0.256543
     4  H    0.218959
     5  H    0.252380
     6  O   -0.421633
     7  O   -0.382729
     8  H    0.422872
 Sum of Mulliken charges =   0.00000

 Dipole moment (field-independent basis, Debye):
    X=             -0.3070    Y=              0.0731    Z=             -0.6660  Tot=              0.7370
 Quadrupole moment (field-independent basis, Debye-Ang):
   XX=            -16.3399   YY=            -22.6852   ZZ=            -26.1314
   XY=              2.1404   XZ=              1.0352   YZ=              0.6882

 Normal termination of Gaussian 09 at Fri Apr 12 17:36:35 2019.
