 Gaussian 09, Revision D.01,
 Gaussian 09:  AS64L-G09RevD.01 24-Apr-2013

 --------------------------------------------------------------------
 #p hf 3-21g scf=tight NoSymmetry guess=read opt=(tight,modredundant)
 --------------------------------------------------------------------

 -----------------------------------
 Geometry optimization at the 2D-PES
 -----------------------------------
 Symbolic Z-matrix:
 Charge =  0 Multiplicity = 1

 SCF Done:  E(RHF) =  -226.387317429     A.U. after   12 cycles
 SCF Done:  E(RHF) =  -226.387333682     A.U. after   12 cycles
 SCF Done:  E(RHF) =  -226.387346724     A.U. after   11 cycles
 SCF Done:  E(RHF) =  -226.387346799     A.U. after    9 cycles
 SCF Done:  E(RHF) =  -226.387346803     A.U. after    8 cycles
 Optimization completed.
    -- Stationary point found.

                          Input orientation:
 ---------------------------------------------------------------------
 Center     Atomic      Atomic             Coordinates (Angstroms)
 Number     Number       Type             X           Y           Z
 ---------------------------------------------------------------------
      1          6           0        0.738660    0.596495    0.054578
      2          6           0        1.410657   -0.524113   -0.023381
      3          1           0        1.200750    1.560085    0.100522
      4          1           0        2.480933   -0.512555   -0.026258
      5          1           0        0.934496   -1.482849   -0.079989
      6          8           0       -0.667874    0.689658    0.024868
      7          8           0       -1.251623   -0.061723    1.140409
      8          1           0       -1.221722   -0.976420    0.810575
 ---------------------------------------------------------------------

 Alpha  occ. eigenvalues --  -20.53146 -20.52583 -11.24860 -11.18469  -1.47244
 Alpha  occ. eigenvalues --   -1.23539  -1.04466  -0.80090  -0.71978  -0.66694
 Alpha  occ. eigenvalues --   -0.65694  -0.58323  -0.55488  -0.49527  -0.47913
 Alpha  occ. eigenvalues --   -0.38352
 Alpha virt. eigenvalues --    0.15202   0.23146   0.28446   0.29355   0.33771
 Alpha virt. eigenvalues --    0.36661   0.50110   0.56623   0.88023   0.96212
 Alpha virt. eigenvalues --    0.98031   1.05903   1.09043   1.11233   1.25570

 Mulliken charges:
               1
     1  C    0.138104
     2  C   -0.480160
     3  H    0.254206
     4  H    0.236626
     5  H    0.216619
     6  O   -0.401468
     7  O   -0.368737
     8  H    0.404808
 Sum of Mulliken charges =   0.00000

 Dipole moment (field-independent basis, Debye):
    X=              1.9897    Y=             -2.0219    Z=             -0.4143  Tot=              2.8668
 Quadrupole moment (field-independent basis, Debye-Ang):
   XX=            -22.9826   YY=            -20.1399   ZZ=            -27.0042
   XY=              3.8698   XZ=              0.8407   YZ=             -1.1399

 Normal termination of Gaussian 09 at Fri Apr 12 16:57:11 2019.
