 Gaussian 09, Revision D.01,
 Gaussian 09:  AS64L-G09RevD.01 24-Apr-2013

 --------------------------------------------------------------------
 #p hf 3-21g scf=tight NoSymmetry guess=read opt=(tight,modredundant)
 --------------------------------------------------------------------

 -----------------------------------
 Geometry optimization at the 2D-PES
 -----------------------------------
 Symbolic Z-matrix:
 Charge =  0 Multiplicity = 1

 SCF Done:  E(RHF) =  -226.392145097     A.U. after   14 cycles
 SCF Done:  E(RHF) =  -226.392165292     A.U. after   13 cycles
 SCF Done:  E(RHF) =  -226.392185181     A.U. after   11 cycles
 SCF Done:  E(RHF) =  -226.392185388     A.U. after    9 cycles
 SCF Done:  E(RHF) =  -226.392185418     A.U. after    8 cycles
 Optimization completed.
    -- Stationary point found.

                          Input orientation:
 ---------------------------------------------------------------------
 Center     Atomic      Atomic             Coordinates (Angstroms)
 Number     Number       Type             X           Y           Z
 ---------------------------------------------------------------------
      1          6           0        0.727097    0.625096    0.041132
      2          6           0        1.374403   -0.511437    0.000953
      3          1           0        1.192068    1.583594    0.127414
      4          1           0        2.444906   -0.533082    0.016376
      5          1           0        0.854344   -1.445315   -0.074376
      6          8           0       -0.682141    0.665180   -0.021358
      7          8           0       -1.154520    0.836394    1.363838
      8          1           0       -1.549737   -0.038534    1.521004
 ---------------------------------------------------------------------

 Alpha  occ. eigenvalues --  -20.52669 -20.51892 -11.24136 -11.18192  -1.46616
 Alpha  occ. eigenvalues --   -1.23109  -1.03689  -0.79620  -0.71229  -0.66367
 Alpha  occ. eigenvalues --   -0.63923  -0.59702  -0.55925  -0.48144  -0.46146
 Alpha  occ. eigenvalues --   -0.38985
 Alpha virt. eigenvalues --    0.15442   0.26095   0.28621   0.31053   0.31577
 Alpha virt. eigenvalues --    0.36081   0.49159   0.56370   0.88609   0.96812
 Alpha virt. eigenvalues --    0.98023   1.06704   1.09647   1.12329   1.23704

 Mulliken charges:
               1
     1  C    0.137810
     2  C   -0.465253
     3  H    0.244177
     4  H    0.231111
     5  H    0.235601
     6  O   -0.406590
     7  O   -0.385632
     8  H    0.408778
 Sum of Mulliken charges =   0.00000

 Dipole moment (field-independent basis, Debye):
    X=              1.2067    Y=             -1.9525    Z=              0.6139  Tot=              2.3760
 Quadrupole moment (field-independent basis, Debye-Ang):
   XX=            -20.6489   YY=            -23.4634   ZZ=            -24.6490
   XY=              3.5484   XZ=             -1.8204   YZ=             -2.2214

 Normal termination of Gaussian 09 at Fri Apr 12 16:27:04 2019.
