 Gaussian 09, Revision D.01,
 Gaussian 09:  AS64L-G09RevD.01 24-Apr-2013

 --------------------------------------------------------------------
 #p hf 3-21g scf=tight NoSymmetry guess=read opt=(tight,modredundant)
 --------------------------------------------------------------------

 -----------------------------------
 Geometry optimization at the 2D-PES
 -----------------------------------
 Symbolic Z-matrix:
 Charge =  0 Multiplicity = 1

 SCF Done:  E(RHF) =  -226.391472081     A.U. after   13 cycles
 SCF Done:  E(RHF) =  -226.391477670     A.U. after   11 cycles
 SCF Done:  E(RHF) =  -226.391480486     A.U. after   10 cycles
 SCF Done:  E(RHF) =  -226.391480540     A.U. after    8 cycles
 SCF Done:  E(RHF) =  -226.391480545     A.U. after    7 cycles
 SCF Done:  E(RHF) =  -226.391480546     A.U. after    6 cycles
 Optimization completed.
    -- Stationary point found.

                          Input orientation:
 ---------------------------------------------------------------------
 Center     Atomic      Atomic             Coordinates (Angstroms)
 Number     Number       Type             X           Y           Z
 ---------------------------------------------------------------------
      1          6           0        0.728407    0.620082    0.041813
      2          6           0        1.376684   -0.515314   -0.003351
      3          1           0        1.197807    1.577390    0.121254
      4          1           0        2.447230   -0.535479    0.012660
      5          1           0        0.859170   -1.451005   -0.072554
      6          8           0       -0.680773    0.671782   -0.015750
      7          8           0       -1.170317    0.596862    1.373229
      8          1           0       -1.705195   -0.213291    1.317416
 ---------------------------------------------------------------------

 Alpha  occ. eigenvalues --  -20.52437 -20.51760 -11.23968 -11.18106  -1.46338
 Alpha  occ. eigenvalues --   -1.23000  -1.03586  -0.79418  -0.70602  -0.67082
 Alpha  occ. eigenvalues --   -0.64107  -0.58860  -0.55780  -0.48733  -0.45511
 Alpha  occ. eigenvalues --   -0.38797
 Alpha virt. eigenvalues --    0.15225   0.26367   0.29009   0.31092   0.31289
 Alpha virt. eigenvalues --    0.36372   0.49387   0.56462   0.88593   0.97140
 Alpha virt. eigenvalues --    0.97941   1.06681   1.09673   1.12593   1.23681

 Mulliken charges:
               1
     1  C    0.139832
     2  C   -0.458906
     3  H    0.242129
     4  H    0.230681
     5  H    0.233909
     6  O   -0.412137
     7  O   -0.385649
     8  H    0.410140
 Sum of Mulliken charges =   0.00000

 Dipole moment (field-independent basis, Debye):
    X=              0.9312    Y=             -1.8987    Z=              0.1916  Tot=              2.1235
 Quadrupole moment (field-independent basis, Debye-Ang):
   XX=            -19.5527   YY=            -22.7286   ZZ=            -25.9379
   XY=              3.6719   XZ=             -1.4780   YZ=             -1.9830

 Normal termination of Gaussian 09 at Fri Apr 12 16:41:46 2019.
