 Gaussian 09, Revision D.01,
 Gaussian 09:  AS64L-G09RevD.01 24-Apr-2013

 --------------------------------------------------------------------
 #p hf 3-21g scf=tight NoSymmetry guess=read opt=(tight,modredundant)
 --------------------------------------------------------------------

 -----------------------------------
 Geometry optimization at the 2D-PES
 -----------------------------------
 Symbolic Z-matrix:
 Charge =  0 Multiplicity = 1

 SCF Done:  E(RHF) =  -226.388515770     A.U. after   13 cycles
 SCF Done:  E(RHF) =  -226.388522572     A.U. after   12 cycles
 SCF Done:  E(RHF) =  -226.388531073     A.U. after   10 cycles
 SCF Done:  E(RHF) =  -226.388531106     A.U. after    8 cycles
 SCF Done:  E(RHF) =  -226.388531117     A.U. after    8 cycles
 Optimization completed.
    -- Stationary point found.

                          Input orientation:
 ---------------------------------------------------------------------
 Center     Atomic      Atomic             Coordinates (Angstroms)
 Number     Number       Type             X           Y           Z
 ---------------------------------------------------------------------
      1          6           0        0.724118    0.626989    0.035077
      2          6           0        1.377783   -0.506755   -0.018317
      3          1           0        1.187242    1.590319    0.056490
      4          1           0        2.448400   -0.522961   -0.012006
      5          1           0        0.863735   -1.447875   -0.033154
      6          8           0       -0.688899    0.657625    0.042393
      7          8           0       -1.137742    0.729873   -1.357746
      8          1           0       -0.908127   -0.157649   -1.688632
 ---------------------------------------------------------------------

 Alpha  occ. eigenvalues --  -20.52934 -20.52172 -11.24809 -11.19050  -1.46934
 Alpha  occ. eigenvalues --   -1.23222  -1.04571  -0.80329  -0.72378  -0.65712
 Alpha  occ. eigenvalues --   -0.64162  -0.59644  -0.56213  -0.49437  -0.45968
 Alpha  occ. eigenvalues --   -0.39714
 Alpha virt. eigenvalues --    0.14644   0.24749   0.28172   0.30461   0.31487
 Alpha virt. eigenvalues --    0.36011   0.49120   0.55506   0.87931   0.96305
 Alpha virt. eigenvalues --    0.98158   1.05741   1.08816   1.10825   1.24756

 Mulliken charges:
               1
     1  C    0.116014
     2  C   -0.470965
     3  H    0.248228
     4  H    0.236152
     5  H    0.237693
     6  O   -0.391143
     7  O   -0.375413
     8  H    0.399434
 Sum of Mulliken charges =   0.00000

 Dipole moment (field-independent basis, Debye):
    X=              2.5275    Y=             -1.9079    Z=             -0.8384  Tot=              3.2759
 Quadrupole moment (field-independent basis, Debye-Ang):
   XX=            -23.9215   YY=            -22.9630   ZZ=            -23.5242
   XY=              3.2304   XZ=              0.2394   YZ=              2.7057

 Normal termination of Gaussian 09 at Fri Apr 12 15:06:08 2019.
