 Gaussian 09, Revision D.01,
 Gaussian 09:  AS64L-G09RevD.01 24-Apr-2013

 --------------------------------------------------------------------
 #p hf 3-21g scf=tight NoSymmetry guess=read opt=(tight,modredundant)
 --------------------------------------------------------------------

 -----------------------------------
 Geometry optimization at the 2D-PES
 -----------------------------------
 Symbolic Z-matrix:
 Charge =  0 Multiplicity = 1

 SCF Done:  E(RHF) =  -226.392075167     A.U. after   12 cycles
 SCF Done:  E(RHF) =  -226.392090198     A.U. after   11 cycles
 SCF Done:  E(RHF) =  -226.392102305     A.U. after   10 cycles
 SCF Done:  E(RHF) =  -226.392102394     A.U. after    9 cycles
 SCF Done:  E(RHF) =  -226.392102407     A.U. after    8 cycles
 SCF Done:  E(RHF) =  -226.392102407     A.U. after    6 cycles
 Optimization completed.
    -- Stationary point found.

                          Input orientation:
 ---------------------------------------------------------------------
 Center     Atomic      Atomic             Coordinates (Angstroms)
 Number     Number       Type             X           Y           Z
 ---------------------------------------------------------------------
      1          6           0        0.742322    0.636372    0.056005
      2          6           0        1.373207   -0.508342    0.000424
      3          1           0        1.220351    1.591376    0.114512
      4          1           0        2.442827   -0.539440   -0.021777
      5          1           0        0.836909   -1.434401   -0.033294
      6          8           0       -0.659863    0.685092   -0.011970
      7          8           0       -1.110235    1.848193    0.752795
      8          1           0       -1.113344    2.541725    0.068643
 ---------------------------------------------------------------------

 Alpha  occ. eigenvalues --  -20.53795 -20.52959 -11.24663 -11.17128  -1.48014
 Alpha  occ. eigenvalues --   -1.24015  -1.03298  -0.80383  -0.70709  -0.68348
 Alpha  occ. eigenvalues --   -0.65190  -0.56398  -0.55051  -0.52125  -0.48481
 Alpha  occ. eigenvalues --   -0.36810
 Alpha virt. eigenvalues --    0.17932   0.23397   0.26556   0.31628   0.33514
 Alpha virt. eigenvalues --    0.35502   0.49466   0.57066   0.89544   0.96759
 Alpha virt. eigenvalues --    0.99322   1.06450   1.10321   1.11428   1.24260

 Mulliken charges:
               1
     1  C    0.148973
     2  C   -0.492702
     3  H    0.236888
     4  H    0.227523
     5  H    0.246409
     6  O   -0.399024
     7  O   -0.374224
     8  H    0.406157
 Sum of Mulliken charges =   0.00000

 Dipole moment (field-independent basis, Debye):
    X=              1.7906    Y=              1.5891    Z=             -1.2311  Tot=              2.6920
 Quadrupole moment (field-independent basis, Debye-Ang):
   XX=            -23.1124   YY=            -15.2568   ZZ=            -26.8929
   XY=             -0.5673   XZ=              1.5377   YZ=             -2.3656

 Normal termination of Gaussian 09 at Fri Apr 12 15:57:16 2019.
