 Gaussian 09, Revision D.01,
 Gaussian 09:  AS64L-G09RevD.01 24-Apr-2013

 --------------------------------------------------------------------
 #p hf 3-21g scf=tight NoSymmetry guess=read opt=(tight,modredundant)
 --------------------------------------------------------------------

 -----------------------------------
 Geometry optimization at the 2D-PES
 -----------------------------------
 Symbolic Z-matrix:
 Charge =  0 Multiplicity = 1

 SCF Done:  E(RHF) =  -226.395229944     A.U. after   13 cycles
 SCF Done:  E(RHF) =  -226.395237537     A.U. after   11 cycles
 SCF Done:  E(RHF) =  -226.395244713     A.U. after   10 cycles
 SCF Done:  E(RHF) =  -226.395244773     A.U. after    8 cycles
 SCF Done:  E(RHF) =  -226.395244775     A.U. after    7 cycles
 Optimization completed.
    -- Stationary point found.

                          Input orientation:
 ---------------------------------------------------------------------
 Center     Atomic      Atomic             Coordinates (Angstroms)
 Number     Number       Type             X           Y           Z
 ---------------------------------------------------------------------
      1          6           0        0.732266    0.636148    0.044438
      2          6           0        1.369832   -0.506053   -0.006326
      3          1           0        1.192932    1.597370    0.107668
      4          1           0        2.439786   -0.526111   -0.004120
      5          1           0        0.845956   -1.438854   -0.051525
      6          8           0       -0.668811    0.679483    0.005590
      7          8           0       -1.069415    2.050054    0.320321
      8          1           0       -1.548519    2.282426   -0.493288
 ---------------------------------------------------------------------

 Alpha  occ. eigenvalues --  -20.53811 -20.53083 -11.24388 -11.16391  -1.48137
 Alpha  occ. eigenvalues --   -1.24137  -1.02792  -0.79867  -0.71246  -0.67438
 Alpha  occ. eigenvalues --   -0.65078  -0.57090  -0.55089  -0.52142  -0.48609
 Alpha  occ. eigenvalues --   -0.35915
 Alpha virt. eigenvalues --    0.19240   0.22470   0.27559   0.32052   0.33859
 Alpha virt. eigenvalues --    0.35877   0.49721   0.57696   0.90326   0.96985
 Alpha virt. eigenvalues --    1.00372   1.06327   1.10924   1.12577   1.22382

 Mulliken charges:
               1
     1  C    0.158799
     2  C   -0.509225
     3  H    0.259128
     4  H    0.226290
     5  H    0.239356
     6  O   -0.411110
     7  O   -0.380257
     8  H    0.417019
 Sum of Mulliken charges =   0.00000

 Dipole moment (field-independent basis, Debye):
    X=              0.6929    Y=              0.9407    Z=             -1.6301  Tot=              2.0056
 Quadrupole moment (field-independent basis, Debye-Ang):
   XX=            -20.4718   YY=            -19.3286   ZZ=            -25.3535
   XY=             -1.7144   XZ=              2.5883   YZ=             -3.6837

 Normal termination of Gaussian 09 at Fri Apr 12 15:46:58 2019.
