 Gaussian 09, Revision D.01,
 Gaussian 09:  AS64L-G09RevD.01 24-Apr-2013

 --------------------------------------------------------------------
 #p hf 3-21g scf=tight NoSymmetry guess=read opt=(tight,modredundant)
 --------------------------------------------------------------------

 -----------------------------------
 Geometry optimization at the 2D-PES
 -----------------------------------
 Symbolic Z-matrix:
 Charge =  0 Multiplicity = 1

 SCF Done:  E(RHF) =  -226.393160592     A.U. after   13 cycles
 SCF Done:  E(RHF) =  -226.393164839     A.U. after   11 cycles
 SCF Done:  E(RHF) =  -226.393168071     A.U. after   10 cycles
 SCF Done:  E(RHF) =  -226.393168112     A.U. after    8 cycles
 SCF Done:  E(RHF) =  -226.393168114     A.U. after    6 cycles
 Optimization completed.
    -- Stationary point found.

                          Input orientation:
 ---------------------------------------------------------------------
 Center     Atomic      Atomic             Coordinates (Angstroms)
 Number     Number       Type             X           Y           Z
 ---------------------------------------------------------------------
      1          6           0        0.733562    0.597435    0.057670
      2          6           0        1.395547   -0.527463   -0.024597
      3          1           0        1.192670    1.563934    0.091968
      4          1           0        2.466200   -0.524873   -0.027662
      5          1           0        0.891316   -1.470815   -0.054865
      6          8           0       -0.665970    0.702130    0.023504
      7          8           0       -1.224478   -0.253013    0.994181
      8          1           0       -2.034671    0.228155    1.234273
 ---------------------------------------------------------------------

 Alpha  occ. eigenvalues --  -20.52646 -20.51980 -11.23719 -11.16718  -1.46545
 Alpha  occ. eigenvalues --   -1.23229  -1.02870  -0.78968  -0.70958  -0.64878
 Alpha  occ. eigenvalues --   -0.64133  -0.60742  -0.54464  -0.50118  -0.45822
 Alpha  occ. eigenvalues --   -0.36741
 Alpha virt. eigenvalues --    0.16801   0.25675   0.29282   0.30605   0.32951
 Alpha virt. eigenvalues --    0.37187   0.50251   0.57656   0.89024   0.97596
 Alpha virt. eigenvalues --    0.99553   1.07208   1.10678   1.12718   1.23771

 Mulliken charges:
               1
     1  C    0.140294
     2  C   -0.470044
     3  H    0.245134
     4  H    0.222614
     5  H    0.252330
     6  O   -0.421579
     7  O   -0.386599
     8  H    0.417850
 Sum of Mulliken charges =   0.00000

 Dipole moment (field-independent basis, Debye):
    X=              0.1497    Y=              0.6704    Z=              0.7884  Tot=              1.0457
 Quadrupole moment (field-independent basis, Debye-Ang):
   XX=            -17.1138   YY=            -22.3584   ZZ=            -24.4432
   XY=             -0.3776   XZ=             -3.0031   YZ=              1.4614

 Normal termination of Gaussian 09 at Fri Apr 12 17:09:44 2019.
