 Gaussian 09, Revision D.01,
 Gaussian 09:  AS64L-G09RevD.01 24-Apr-2013

 --------------------------------------------------------------------
 #p hf 3-21g scf=tight NoSymmetry guess=read opt=(tight,modredundant)
 --------------------------------------------------------------------

 -----------------------------------
 Geometry optimization at the 2D-PES
 -----------------------------------
 Symbolic Z-matrix:
 Charge =  0 Multiplicity = 1

 SCF Done:  E(RHF) =  -226.391722591     A.U. after   13 cycles
 SCF Done:  E(RHF) =  -226.391727079     A.U. after   11 cycles
 SCF Done:  E(RHF) =  -226.391729358     A.U. after   10 cycles
 SCF Done:  E(RHF) =  -226.391729402     A.U. after    8 cycles
 SCF Done:  E(RHF) =  -226.391729406     A.U. after    6 cycles
 Optimization completed.
    -- Stationary point found.

                          Input orientation:
 ---------------------------------------------------------------------
 Center     Atomic      Atomic             Coordinates (Angstroms)
 Number     Number       Type             X           Y           Z
 ---------------------------------------------------------------------
      1          6           0        0.727945    0.620447    0.042771
      2          6           0        1.375692   -0.515033   -0.003331
      3          1           0        1.197803    1.577737    0.120890
      4          1           0        2.446277   -0.535594    0.010879
      5          1           0        0.856624   -1.449990   -0.068099
      6          8           0       -0.680308    0.672511   -0.015829
      7          8           0       -1.168781    0.595708    1.374852
      8          1           0       -1.828105   -0.111712    1.274064
 ---------------------------------------------------------------------

 Alpha  occ. eigenvalues --  -20.52327 -20.51650 -11.23842 -11.17981  -1.46175
 Alpha  occ. eigenvalues --   -1.22962  -1.03436  -0.79296  -0.70137  -0.67513
 Alpha  occ. eigenvalues --   -0.63936  -0.58595  -0.55706  -0.49256  -0.44932
 Alpha  occ. eigenvalues --   -0.38668
 Alpha virt. eigenvalues --    0.15271   0.26826   0.29127   0.30941   0.31382
 Alpha virt. eigenvalues --    0.36457   0.49446   0.56579   0.88710   0.97315
 Alpha virt. eigenvalues --    0.98214   1.06770   1.09823   1.12748   1.23412

 Mulliken charges:
               1
     1  C    0.141372
     2  C   -0.456264
     3  H    0.240972
     4  H    0.229767
     5  H    0.235557
     6  O   -0.415513
     7  O   -0.387684
     8  H    0.411794
 Sum of Mulliken charges =   0.00000

 Dipole moment (field-independent basis, Debye):
    X=              0.6712    Y=             -1.7122    Z=              0.1021  Tot=              1.8419
 Quadrupole moment (field-independent basis, Debye-Ang):
   XX=            -18.5560   YY=            -22.8445   ZZ=            -26.1857
   XY=              3.3257   XZ=             -1.6577   YZ=             -1.6858

 Normal termination of Gaussian 09 at Fri Apr 12 16:41:25 2019.
