 Gaussian 09, Revision D.01,
 Gaussian 09:  AS64L-G09RevD.01 24-Apr-2013

 --------------------------------------------------------------------
 #p hf 3-21g scf=tight NoSymmetry guess=read opt=(tight,modredundant)
 --------------------------------------------------------------------

 -----------------------------------
 Geometry optimization at the 2D-PES
 -----------------------------------
 Symbolic Z-matrix:
 Charge =  0 Multiplicity = 1

 SCF Done:  E(RHF) =  -226.389653483     A.U. after   12 cycles
 SCF Done:  E(RHF) =  -226.389658717     A.U. after   11 cycles
 SCF Done:  E(RHF) =  -226.389665832     A.U. after   10 cycles
 SCF Done:  E(RHF) =  -226.389665855     A.U. after    9 cycles
 SCF Done:  E(RHF) =  -226.389665867     A.U. after    8 cycles
 Optimization completed.
    -- Stationary point found.

                          Input orientation:
 ---------------------------------------------------------------------
 Center     Atomic      Atomic             Coordinates (Angstroms)
 Number     Number       Type             X           Y           Z
 ---------------------------------------------------------------------
      1          6           0        0.724422    0.630819    0.034311
      2          6           0        1.373909   -0.505148   -0.021337
      3          1           0        1.185876    1.594817    0.054688
      4          1           0        2.444471   -0.525965   -0.010446
      5          1           0        0.852924   -1.441899   -0.041739
      6          8           0       -0.687683    0.654539    0.047866
      7          8           0       -1.123902    0.966879   -1.322913
      8          1           0       -0.888240    0.149485   -1.799502
 ---------------------------------------------------------------------

 Alpha  occ. eigenvalues --  -20.53034 -20.52181 -11.24748 -11.18962  -1.47034
 Alpha  occ. eigenvalues --   -1.23268  -1.04449  -0.80352  -0.72412  -0.65647
 Alpha  occ. eigenvalues --   -0.63827  -0.59946  -0.56200  -0.49478  -0.45959
 Alpha  occ. eigenvalues --   -0.39682
 Alpha virt. eigenvalues --    0.14897   0.25285   0.27916   0.30543   0.31358
 Alpha virt. eigenvalues --    0.35858   0.48855   0.55611   0.88097   0.96413
 Alpha virt. eigenvalues --    0.98108   1.05847   1.08976   1.10781   1.24446

 Mulliken charges:
               1
     1  C    0.111225
     2  C   -0.469269
     3  H    0.248259
     4  H    0.234893
     5  H    0.241822
     6  O   -0.389040
     7  O   -0.377536
     8  H    0.399648
 Sum of Mulliken charges =   0.00000

 Dipole moment (field-independent basis, Debye):
    X=              2.5266    Y=             -1.7567    Z=             -1.1194  Tot=              3.2746
 Quadrupole moment (field-independent basis, Debye-Ang):
   XX=            -23.9687   YY=            -23.7995   ZZ=            -22.4990
   XY=              3.1519   XZ=              0.5044   YZ=              2.2273

 Normal termination of Gaussian 09 at Fri Apr 12 15:08:07 2019.
