 Gaussian 09, Revision D.01,
 Gaussian 09:  AS64L-G09RevD.01 24-Apr-2013

 --------------------------------------------------------------------
 #p hf 3-21g scf=tight NoSymmetry guess=read opt=(tight,modredundant)
 --------------------------------------------------------------------

 -----------------------------------
 Geometry optimization at the 2D-PES
 -----------------------------------
 Symbolic Z-matrix:
 Charge =  0 Multiplicity = 1

 SCF Done:  E(RHF) =  -226.395332287     A.U. after   12 cycles
 SCF Done:  E(RHF) =  -226.395342441     A.U. after   12 cycles
 SCF Done:  E(RHF) =  -226.395357612     A.U. after   11 cycles
 SCF Done:  E(RHF) =  -226.395357749     A.U. after    9 cycles
 SCF Done:  E(RHF) =  -226.395357762     A.U. after    8 cycles
 SCF Done:  E(RHF) =  -226.395357763     A.U. after    7 cycles
 Optimization completed.
    -- Stationary point found.

                          Input orientation:
 ---------------------------------------------------------------------
 Center     Atomic      Atomic             Coordinates (Angstroms)
 Number     Number       Type             X           Y           Z
 ---------------------------------------------------------------------
      1          6           0        0.741566    0.573056    0.019508
      2          6           0        1.435026   -0.535029   -0.050917
      3          1           0        1.169837    1.551014    0.093031
      4          1           0        2.504033   -0.494148   -0.039015
      5          1           0        0.968908   -1.490340   -0.156596
      6          8           0       -0.648917    0.704067    0.041813
      7          8           0       -1.294752   -0.598856   -0.025399
      8          1           0       -1.225919   -0.906490    0.897771
 ---------------------------------------------------------------------

 Alpha  occ. eigenvalues --  -20.54566 -20.53451 -11.25114 -11.16828  -1.48817
 Alpha  occ. eigenvalues --   -1.24388  -1.03944  -0.80336  -0.70718  -0.69614
 Alpha  occ. eigenvalues --   -0.65100  -0.56949  -0.55109  -0.52511  -0.48955
 Alpha  occ. eigenvalues --   -0.36817
 Alpha virt. eigenvalues --    0.19199   0.22131   0.28399   0.29240   0.33067
 Alpha virt. eigenvalues --    0.36942   0.49425   0.58344   0.88390   0.96418
 Alpha virt. eigenvalues --    1.00233   1.06467   1.09609   1.11334   1.24497

 Mulliken charges:
               1
     1  C    0.141063
     2  C   -0.520031
     3  H    0.264393
     4  H    0.226501
     5  H    0.240430
     6  O   -0.396404
     7  O   -0.366639
     8  H    0.410686
 Sum of Mulliken charges =   0.00000

 Dipole moment (field-independent basis, Debye):
    X=              1.7014    Y=             -0.7168    Z=              1.8699  Tot=              2.6277
 Quadrupole moment (field-independent basis, Debye-Ang):
   XX=            -23.6157   YY=            -21.3433   ZZ=            -23.9041
   XY=              2.4666   XZ=             -2.4225   YZ=             -1.5941

 Normal termination of Gaussian 09 at Fri Apr 12 18:02:01 2019.
