 Gaussian 09, Revision D.01,
 Gaussian 09:  AS64L-G09RevD.01 24-Apr-2013

 --------------------------------------------------------------------
 #p hf 3-21g scf=tight NoSymmetry guess=read opt=(tight,modredundant)
 --------------------------------------------------------------------

 -----------------------------------
 Geometry optimization at the 2D-PES
 -----------------------------------
 Symbolic Z-matrix:
 Charge =  0 Multiplicity = 1

 SCF Done:  E(RHF) =  -226.391812769     A.U. after   12 cycles
 SCF Done:  E(RHF) =  -226.391818508     A.U. after   10 cycles
 SCF Done:  E(RHF) =  -226.391824087     A.U. after   10 cycles
 SCF Done:  E(RHF) =  -226.391824119     A.U. after    9 cycles
 SCF Done:  E(RHF) =  -226.391824124     A.U. after    8 cycles
 Optimization completed.
    -- Stationary point found.

                          Input orientation:
 ---------------------------------------------------------------------
 Center     Atomic      Atomic             Coordinates (Angstroms)
 Number     Number       Type             X           Y           Z
 ---------------------------------------------------------------------
      1          6           0        0.744951    0.589884    0.060319
      2          6           0        1.414406   -0.530435   -0.031141
      3          1           0        1.191924    1.562526    0.076485
      4          1           0        2.484674   -0.519300   -0.049448
      5          1           0        0.913901   -1.475425   -0.060966
      6          8           0       -0.658323    0.703555    0.042258
      7          8           0       -1.255836   -0.384571    0.816153
      8          1           0       -1.152303   -0.058304    1.728431
 ---------------------------------------------------------------------

 Alpha  occ. eigenvalues --  -20.53481 -20.52684 -11.24420 -11.17320  -1.47609
 Alpha  occ. eigenvalues --   -1.23510  -1.03732  -0.80217  -0.69829  -0.68888
 Alpha  occ. eigenvalues --   -0.62890  -0.59275  -0.55923  -0.49624  -0.47853
 Alpha  occ. eigenvalues --   -0.37354
 Alpha virt. eigenvalues --    0.16538   0.25001   0.28643   0.29375   0.32552
 Alpha virt. eigenvalues --    0.37009   0.49661   0.57369   0.88174   0.96524
 Alpha virt. eigenvalues --    0.99878   1.06486   1.09800   1.11261   1.23949

 Mulliken charges:
               1
     1  C    0.107903
     2  C   -0.480661
     3  H    0.252421
     4  H    0.225657
     5  H    0.256469
     6  O   -0.394704
     7  O   -0.374155
     8  H    0.407070
 Sum of Mulliken charges =   0.00000

 Dipole moment (field-independent basis, Debye):
    X=              2.0262    Y=              0.3589    Z=              2.0522  Tot=              2.9062
 Quadrupole moment (field-independent basis, Debye-Ang):
   XX=            -23.6187   YY=            -22.6438   ZZ=            -20.5194
   XY=              0.4906   XZ=             -2.2082   YZ=              0.7201

 Normal termination of Gaussian 09 at Fri Apr 12 17:19:58 2019.
