 Gaussian 09, Revision D.01,
 Gaussian 09:  AS64L-G09RevD.01 24-Apr-2013

 --------------------------------------------------------------------
 #p hf 3-21g scf=tight NoSymmetry guess=read opt=(tight,modredundant)
 --------------------------------------------------------------------

 -----------------------------------
 Geometry optimization at the 2D-PES
 -----------------------------------
 Symbolic Z-matrix:
 Charge =  0 Multiplicity = 1

 SCF Done:  E(RHF) =  -226.385948165     A.U. after   13 cycles
 SCF Done:  E(RHF) =  -226.385970420     A.U. after   13 cycles
 SCF Done:  E(RHF) =  -226.385988993     A.U. after   12 cycles
 SCF Done:  E(RHF) =  -226.385989152     A.U. after    9 cycles
 SCF Done:  E(RHF) =  -226.385989184     A.U. after    9 cycles
 SCF Done:  E(RHF) =  -226.385989185     A.U. after    7 cycles
 Optimization completed.
    -- Stationary point found.

                          Input orientation:
 ---------------------------------------------------------------------
 Center     Atomic      Atomic             Coordinates (Angstroms)
 Number     Number       Type             X           Y           Z
 ---------------------------------------------------------------------
      1          6           0        0.747039    0.637243    0.017774
      2          6           0        1.380094   -0.507955   -0.015437
      3          1           0        1.220010    1.594868    0.096042
      4          1           0        2.448599   -0.542491    0.041037
      5          1           0        0.844194   -1.433034   -0.078627
      6          8           0       -0.657344    0.674539    0.045690
      7          8           0       -1.121952    1.768811   -0.819963
      8          1           0       -0.527461    1.724667   -1.592151
 ---------------------------------------------------------------------

 Alpha  occ. eigenvalues --  -20.53722 -20.52639 -11.25123 -11.18539  -1.47569
 Alpha  occ. eigenvalues --   -1.23992  -1.04288  -0.81243  -0.72374  -0.66444
 Alpha  occ. eigenvalues --   -0.63404  -0.59304  -0.55389  -0.52511  -0.46896
 Alpha  occ. eigenvalues --   -0.38076
 Alpha virt. eigenvalues --    0.15254   0.24675   0.27287   0.30637   0.32099
 Alpha virt. eigenvalues --    0.35371   0.48923   0.56218   0.88381   0.96423
 Alpha virt. eigenvalues --    0.98484   1.06247   1.09472   1.10510   1.24623

 Mulliken charges:
               1
     1  C    0.092685
     2  C   -0.475175
     3  H    0.249091
     4  H    0.232923
     5  H    0.251942
     6  O   -0.378170
     7  O   -0.373574
     8  H    0.400277
 Sum of Mulliken charges =   0.00000

 Dipole moment (field-independent basis, Debye):
    X=              3.1323    Y=             -0.1574    Z=             -1.6365  Tot=              3.5376
 Quadrupole moment (field-independent basis, Debye-Ang):
   XX=            -24.9512   YY=            -22.3153   ZZ=            -21.6636
   XY=              3.2835   XZ=              0.1583   YZ=             -2.6091

 Normal termination of Gaussian 09 at Fri Apr 12 15:24:02 2019.
