 Gaussian 09, Revision D.01,
 Gaussian 09:  AS64L-G09RevD.01 24-Apr-2013

 --------------------------------------------------------------------
 #p hf 3-21g scf=tight NoSymmetry guess=read opt=(tight,modredundant)
 --------------------------------------------------------------------

 -----------------------------------
 Geometry optimization at the 2D-PES
 -----------------------------------
 Symbolic Z-matrix:
 Charge =  0 Multiplicity = 1

 SCF Done:  E(RHF) =  -226.392563996     A.U. after   12 cycles
 SCF Done:  E(RHF) =  -226.392569452     A.U. after   11 cycles
 SCF Done:  E(RHF) =  -226.392574214     A.U. after   10 cycles
 SCF Done:  E(RHF) =  -226.392574253     A.U. after    8 cycles
 SCF Done:  E(RHF) =  -226.392574261     A.U. after    8 cycles
 Optimization completed.
    -- Stationary point found.

                          Input orientation:
 ---------------------------------------------------------------------
 Center     Atomic      Atomic             Coordinates (Angstroms)
 Number     Number       Type             X           Y           Z
 ---------------------------------------------------------------------
      1          6           0        0.743781    0.589109    0.062488
      2          6           0        1.413351   -0.530632   -0.031343
      3          1           0        1.191409    1.561582    0.078086
      4          1           0        2.483612   -0.518296   -0.051608
      5          1           0        0.914085   -1.476237   -0.057793
      6          8           0       -0.658914    0.704789    0.043411
      7          8           0       -1.255397   -0.385952    0.814387
      8          1           0       -1.299327    0.010621    1.702666
 ---------------------------------------------------------------------

 Alpha  occ. eigenvalues --  -20.53402 -20.52612 -11.24262 -11.17096  -1.47531
 Alpha  occ. eigenvalues --   -1.23472  -1.03517  -0.79996  -0.70096  -0.68301
 Alpha  occ. eigenvalues --   -0.62849  -0.59806  -0.55562  -0.49054  -0.48102
 Alpha  occ. eigenvalues --   -0.37177
 Alpha virt. eigenvalues --    0.16789   0.24959   0.28808   0.29596   0.32756
 Alpha virt. eigenvalues --    0.37062   0.49724   0.57559   0.88366   0.96587
 Alpha virt. eigenvalues --    1.00243   1.06620   1.09985   1.11720   1.23430

 Mulliken charges:
               1
     1  C    0.114249
     2  C   -0.479846
     3  H    0.250997
     4  H    0.224398
     5  H    0.256203
     6  O   -0.399150
     7  O   -0.376325
     8  H    0.409474
 Sum of Mulliken charges =   0.00000

 Dipole moment (field-independent basis, Debye):
    X=              1.7134    Y=              0.4991    Z=              2.0316  Tot=              2.7041
 Quadrupole moment (field-independent basis, Debye-Ang):
   XX=            -22.8649   YY=            -22.6642   ZZ=            -20.6751
   XY=              0.3065   XZ=             -2.7277   YZ=              0.9913

 Normal termination of Gaussian 09 at Fri Apr 12 17:19:43 2019.
