 Gaussian 09, Revision D.01,
 Gaussian 09:  AS64L-G09RevD.01 24-Apr-2013

 --------------------------------------------------------------------
 #p hf 3-21g scf=tight NoSymmetry guess=read opt=(tight,modredundant)
 --------------------------------------------------------------------

 -----------------------------------
 Geometry optimization at the 2D-PES
 -----------------------------------
 Symbolic Z-matrix:
 Charge =  0 Multiplicity = 1

 SCF Done:  E(RHF) =  -226.395911226     A.U. after   13 cycles
 SCF Done:  E(RHF) =  -226.395911464     A.U. after    9 cycles
 SCF Done:  E(RHF) =  -226.395911538     A.U. after    7 cycles
 SCF Done:  E(RHF) =  -226.395911545     A.U. after    7 cycles
 Optimization completed.
    -- Stationary point found.

                          Input orientation:
 ---------------------------------------------------------------------
 Center     Atomic      Atomic             Coordinates (Angstroms)
 Number     Number       Type             X           Y           Z
 ---------------------------------------------------------------------
      1          6           0        0.720874    0.633240    0.047146
      2          6           0        1.367315   -0.504480   -0.004400
      3          1           0        1.176269    1.597711    0.101942
      4          1           0        2.437310   -0.515706   -0.001969
      5          1           0        0.851721   -1.441663   -0.054224
      6          8           0       -0.675473    0.671217    0.002873
      7          8           0       -1.054692    2.052098    0.324547
      8          1           0       -2.020424    1.965250    0.266387
 ---------------------------------------------------------------------

 Alpha  occ. eigenvalues --  -20.53600 -20.52737 -11.24271 -11.16128  -1.47719
 Alpha  occ. eigenvalues --   -1.24136  -1.02515  -0.79850  -0.70468  -0.67177
 Alpha  occ. eigenvalues --   -0.63862  -0.59833  -0.55294  -0.50582  -0.48527
 Alpha  occ. eigenvalues --   -0.35458
 Alpha virt. eigenvalues --    0.19525   0.22787   0.27599   0.32256   0.34159
 Alpha virt. eigenvalues --    0.36091   0.50260   0.57869   0.90379   0.97440
 Alpha virt. eigenvalues --    1.00229   1.07121   1.11007   1.12255   1.23431

 Mulliken charges:
               1
     1  C    0.174687
     2  C   -0.513070
     3  H    0.265442
     4  H    0.225586
     5  H    0.235534
     6  O   -0.422712
     7  O   -0.389741
     8  H    0.424274
 Sum of Mulliken charges =   0.00000

 Dipole moment (field-independent basis, Debye):
    X=             -0.3759    Y=              0.3197    Z=             -0.0025  Tot=              0.4935
 Quadrupole moment (field-independent basis, Debye-Ang):
   XX=            -16.4758   YY=            -22.2763   ZZ=            -25.8880
   XY=             -2.6875   XZ=             -0.4356   YZ=              0.0016

 Normal termination of Gaussian 09 at Fri Apr 12 15:48:32 2019.
