 Gaussian 09, Revision D.01,
 Gaussian 09:  AS64L-G09RevD.01 24-Apr-2013

 --------------------------------------------------------------------
 #p hf 3-21g scf=tight NoSymmetry guess=read opt=(tight,modredundant)
 --------------------------------------------------------------------

 -----------------------------------
 Geometry optimization at the 2D-PES
 -----------------------------------
 Symbolic Z-matrix:
 Charge =  0 Multiplicity = 1

 SCF Done:  E(RHF) =  -226.383147111     A.U. after   13 cycles
 SCF Done:  E(RHF) =  -226.383154235     A.U. after   12 cycles
 SCF Done:  E(RHF) =  -226.383159311     A.U. after   11 cycles
 SCF Done:  E(RHF) =  -226.383159400     A.U. after    9 cycles
 SCF Done:  E(RHF) =  -226.383159405     A.U. after    7 cycles
 Optimization completed.
    -- Stationary point found.

                          Input orientation:
 ---------------------------------------------------------------------
 Center     Atomic      Atomic             Coordinates (Angstroms)
 Number     Number       Type             X           Y           Z
 ---------------------------------------------------------------------
      1          6           0        0.733549    0.615855    0.031526
      2          6           0        1.398475   -0.513515   -0.004274
      3          1           0        1.197004    1.578985    0.072626
      4          1           0        2.468839   -0.516130    0.010451
      5          1           0        0.901284   -1.464508   -0.014317
      6          8           0       -0.675853    0.670275    0.019781
      7          8           0       -1.196196    0.267027   -1.299273
      8          1           0       -0.621009   -0.478334   -1.550728
 ---------------------------------------------------------------------

 Alpha  occ. eigenvalues --  -20.53007 -20.52290 -11.25514 -11.19475  -1.46869
 Alpha  occ. eigenvalues --   -1.23520  -1.05253  -0.80859  -0.72752  -0.66952
 Alpha  occ. eigenvalues --   -0.62759  -0.59520  -0.56043  -0.51863  -0.45674
 Alpha  occ. eigenvalues --   -0.39408
 Alpha virt. eigenvalues --    0.14056   0.24005   0.27887   0.29547   0.31704
 Alpha virt. eigenvalues --    0.36387   0.49841   0.55191   0.87478   0.95751
 Alpha virt. eigenvalues --    0.99433   1.04979   1.08298   1.10830   1.23892

 Mulliken charges:
               1
     1  C    0.112810
     2  C   -0.487277
     3  H    0.254093
     4  H    0.240438
     5  H    0.237216
     6  O   -0.388390
     7  O   -0.368731
     8  H    0.399841
 Sum of Mulliken charges =   0.00000

 Dipole moment (field-independent basis, Debye):
    X=              3.2021    Y=             -1.6269    Z=             -0.6364  Tot=              3.6476
 Quadrupole moment (field-independent basis, Debye-Ang):
   XX=            -24.9584   YY=            -21.6898   ZZ=            -24.1215
   XY=              2.5239   XZ=             -0.9435   YZ=              2.3292

 Normal termination of Gaussian 09 at Fri Apr 12 15:00:32 2019.
