 Gaussian 09, Revision D.01,
 Gaussian 09:  AS64L-G09RevD.01 24-Apr-2013

 --------------------------------------------------------------------
 #p hf 3-21g scf=tight NoSymmetry guess=read opt=(tight,modredundant)
 --------------------------------------------------------------------

 -----------------------------------
 Geometry optimization at the 2D-PES
 -----------------------------------
 Symbolic Z-matrix:
 Charge =  0 Multiplicity = 1

 SCF Done:  E(RHF) =  -226.387228654     A.U. after   13 cycles
 SCF Done:  E(RHF) =  -226.387237247     A.U. after   12 cycles
 SCF Done:  E(RHF) =  -226.387245330     A.U. after   10 cycles
 SCF Done:  E(RHF) =  -226.387245358     A.U. after    9 cycles
 SCF Done:  E(RHF) =  -226.387245364     A.U. after    7 cycles
 Optimization completed.
    -- Stationary point found.

                          Input orientation:
 ---------------------------------------------------------------------
 Center     Atomic      Atomic             Coordinates (Angstroms)
 Number     Number       Type             X           Y           Z
 ---------------------------------------------------------------------
      1          6           0        0.742838    0.620165    0.043156
      2          6           0        1.384378   -0.518000   -0.005770
      3          1           0        1.221207    1.577774    0.099069
      4          1           0        2.455081   -0.547237   -0.001523
      5          1           0        0.850488   -1.444932   -0.057015
      6          8           0       -0.668852    0.677837   -0.011299
      7          8           0       -1.193464    0.604758    1.361771
      8          1           0       -0.932137    1.465847    1.737340
 ---------------------------------------------------------------------

 Alpha  occ. eigenvalues --  -20.52671 -20.51943 -11.24148 -11.18505  -1.46528
 Alpha  occ. eigenvalues --   -1.23006  -1.03894  -0.80552  -0.69445  -0.68877
 Alpha  occ. eigenvalues --   -0.62104  -0.58636  -0.56937  -0.48543  -0.45912
 Alpha  occ. eigenvalues --   -0.39139
 Alpha virt. eigenvalues --    0.14599   0.26433   0.28079   0.30236   0.31955
 Alpha virt. eigenvalues --    0.35999   0.49423   0.56061   0.88038   0.96682
 Alpha virt. eigenvalues --    0.98496   1.06113   1.09504   1.10878   1.25473

 Mulliken charges:
               1
     1  C    0.094439
     2  C   -0.440412
     3  H    0.227982
     4  H    0.229005
     5  H    0.257522
     6  O   -0.389408
     7  O   -0.376595
     8  H    0.397467
 Sum of Mulliken charges =   0.00000

 Dipole moment (field-independent basis, Debye):
    X=              2.6190    Y=              1.3128    Z=              0.9921  Tot=              3.0930
 Quadrupole moment (field-independent basis, Debye-Ang):
   XX=            -24.0305   YY=            -18.3909   ZZ=            -23.1855
   XY=             -0.4247   XZ=             -0.0742   YZ=              4.0473

 Normal termination of Gaussian 09 at Fri Apr 12 16:36:49 2019.
