 Gaussian 09, Revision D.01,
 Gaussian 09:  AS64L-G09RevD.01 24-Apr-2013

 --------------------------------------------------------------------
 #p hf 3-21g scf=tight NoSymmetry guess=read opt=(tight,modredundant)
 --------------------------------------------------------------------

 -----------------------------------
 Geometry optimization at the 2D-PES
 -----------------------------------
 Symbolic Z-matrix:
 Charge =  0 Multiplicity = 1

 SCF Done:  E(RHF) =  -226.392255019     A.U. after   13 cycles
 SCF Done:  E(RHF) =  -226.392263189     A.U. after   11 cycles
 SCF Done:  E(RHF) =  -226.392267633     A.U. after   10 cycles
 SCF Done:  E(RHF) =  -226.392267711     A.U. after    8 cycles
 SCF Done:  E(RHF) =  -226.392267720     A.U. after    6 cycles
 Optimization completed.
    -- Stationary point found.

                          Input orientation:
 ---------------------------------------------------------------------
 Center     Atomic      Atomic             Coordinates (Angstroms)
 Number     Number       Type             X           Y           Z
 ---------------------------------------------------------------------
      1          6           0        0.729537    0.623060    0.039818
      2          6           0        1.373505   -0.513886   -0.002897
      3          1           0        1.200824    1.580550    0.121279
      4          1           0        2.444046   -0.539222    0.014382
      5          1           0        0.844422   -1.443009   -0.061949
      6          8           0       -0.678660    0.670626   -0.022005
      7          8           0       -1.163275    0.595054    1.369523
      8          1           0       -1.777303    1.349547    1.375084
 ---------------------------------------------------------------------

 Alpha  occ. eigenvalues --  -20.52265 -20.51574 -11.23575 -11.17668  -1.46092
 Alpha  occ. eigenvalues --   -1.22865  -1.03115  -0.79263  -0.69956  -0.66770
 Alpha  occ. eigenvalues --   -0.64567  -0.57937  -0.55315  -0.49650  -0.44565
 Alpha  occ. eigenvalues --   -0.38465
 Alpha virt. eigenvalues --    0.15530   0.27121   0.29121   0.30940   0.32205
 Alpha virt. eigenvalues --    0.36409   0.49384   0.56766   0.88781   0.97592
 Alpha virt. eigenvalues --    0.98664   1.07098   1.10401   1.12915   1.23014

 Mulliken charges:
               1
     1  C    0.131838
     2  C   -0.447549
     3  H    0.229597
     4  H    0.226176
     5  H    0.251399
     6  O   -0.412714
     7  O   -0.388839
     8  H    0.410091
 Sum of Mulliken charges =   0.00000

 Dipole moment (field-independent basis, Debye):
    X=              0.7766    Y=              1.2715    Z=              0.3214  Tot=              1.5242
 Quadrupole moment (field-independent basis, Debye-Ang):
   XX=            -18.9981   YY=            -18.9415   ZZ=            -25.5923
   XY=             -2.7783   XZ=             -1.9298   YZ=              2.6913

 Normal termination of Gaussian 09 at Fri Apr 12 16:38:40 2019.
