 Gaussian 09, Revision D.01,
 Gaussian 09:  AS64L-G09RevD.01 24-Apr-2013

 --------------------------------------------------------------------
 #p hf 3-21g scf=tight NoSymmetry guess=read opt=(tight,modredundant)
 --------------------------------------------------------------------

 -----------------------------------
 Geometry optimization at the 2D-PES
 -----------------------------------
 Symbolic Z-matrix:
 Charge =  0 Multiplicity = 1

 SCF Done:  E(RHF) =  -226.395532564     A.U. after   14 cycles
 SCF Done:  E(RHF) =  -226.395542296     A.U. after   12 cycles
 SCF Done:  E(RHF) =  -226.395546207     A.U. after   10 cycles
 SCF Done:  E(RHF) =  -226.395546416     A.U. after    9 cycles
 SCF Done:  E(RHF) =  -226.395546432     A.U. after    8 cycles
 SCF Done:  E(RHF) =  -226.395546432     A.U. after    6 cycles
 Optimization completed.
    -- Stationary point found.

                          Input orientation:
 ---------------------------------------------------------------------
 Center     Atomic      Atomic             Coordinates (Angstroms)
 Number     Number       Type             X           Y           Z
 ---------------------------------------------------------------------
      1          6           0        0.722238    0.638998    0.020078
      2          6           0        1.365909   -0.499840   -0.024452
      3          1           0        1.180508    1.602926    0.065685
      4          1           0        2.435111   -0.521911    0.021354
      5          1           0        0.842572   -1.432129   -0.086120
      6          8           0       -0.678785    0.668383    0.058599
      7          8           0       -1.081080    1.782143   -0.814338
      8          1           0       -1.852403    1.378869   -1.246891
 ---------------------------------------------------------------------

 Alpha  occ. eigenvalues --  -20.53229 -20.52239 -11.24153 -11.16985  -1.47196
 Alpha  occ. eigenvalues --   -1.23719  -1.02918  -0.79658  -0.70871  -0.66863
 Alpha  occ. eigenvalues --   -0.62351  -0.61298  -0.55595  -0.49656  -0.47008
 Alpha  occ. eigenvalues --   -0.36943
 Alpha virt. eigenvalues --    0.17584   0.24927   0.28027   0.31656   0.33191
 Alpha virt. eigenvalues --    0.35974   0.49651   0.57259   0.89911   0.97183
 Alpha virt. eigenvalues --    0.99710   1.07084   1.10648   1.12778   1.22296

 Mulliken charges:
               1
     1  C    0.162169
     2  C   -0.493562
     3  H    0.254876
     4  H    0.227206
     5  H    0.237966
     6  O   -0.415691
     7  O   -0.392085
     8  H    0.419121
 Sum of Mulliken charges =   0.00000

 Dipole moment (field-independent basis, Debye):
    X=              0.2037    Y=             -0.6358    Z=             -1.1050  Tot=              1.2910
 Quadrupole moment (field-independent basis, Debye-Ang):
   XX=            -18.0760   YY=            -24.5938   ZZ=            -23.6981
   XY=             -0.0304   XZ=              3.6356   YZ=             -0.5480

 Normal termination of Gaussian 09 at Fri Apr 12 15:21:35 2019.
