 Gaussian 09, Revision D.01,
 Gaussian 09:  AS64L-G09RevD.01 24-Apr-2013

 --------------------------------------------------------------------
 #p hf 3-21g scf=tight NoSymmetry guess=read opt=(tight,modredundant)
 --------------------------------------------------------------------

 -----------------------------------
 Geometry optimization at the 2D-PES
 -----------------------------------
 Symbolic Z-matrix:
 Charge =  0 Multiplicity = 1

 SCF Done:  E(RHF) =  -226.391820943     A.U. after   13 cycles
 SCF Done:  E(RHF) =  -226.391830548     A.U. after   11 cycles
 SCF Done:  E(RHF) =  -226.391835589     A.U. after   10 cycles
 SCF Done:  E(RHF) =  -226.391835667     A.U. after    8 cycles
 SCF Done:  E(RHF) =  -226.391835677     A.U. after    6 cycles
 Optimization completed.
    -- Stationary point found.

                          Input orientation:
 ---------------------------------------------------------------------
 Center     Atomic      Atomic             Coordinates (Angstroms)
 Number     Number       Type             X           Y           Z
 ---------------------------------------------------------------------
      1          6           0        0.731471    0.622728    0.040601
      2          6           0        1.375072   -0.514295   -0.003294
      3          1           0        1.204042    1.580129    0.118814
      4          1           0        2.445645   -0.540181    0.011922
      5          1           0        0.845272   -1.443084   -0.061251
      6          8           0       -0.677609    0.671446   -0.019859
      7          8           0       -1.167955    0.595985    1.368257
      8          1           0       -1.651003    1.438381    1.429420
 ---------------------------------------------------------------------

 Alpha  occ. eigenvalues --  -20.52339 -20.51648 -11.23634 -11.17736  -1.46200
 Alpha  occ. eigenvalues --   -1.22880  -1.03192  -0.79414  -0.69944  -0.67002
 Alpha  occ. eigenvalues --   -0.64348  -0.58079  -0.55515  -0.49065  -0.45056
 Alpha  occ. eigenvalues --   -0.38524
 Alpha virt. eigenvalues --    0.15476   0.26868   0.29021   0.30947   0.32216
 Alpha virt. eigenvalues --    0.36342   0.49349   0.56685   0.88658   0.97521
 Alpha virt. eigenvalues --    0.98512   1.06945   1.10283   1.12757   1.23323

 Mulliken charges:
               1
     1  C    0.128199
     2  C   -0.447023
     3  H    0.228370
     4  H    0.226306
     5  H    0.252225
     6  O   -0.409448
     7  O   -0.387001
     8  H    0.408371
 Sum of Mulliken charges =   0.00000

 Dipole moment (field-independent basis, Debye):
    X=              1.0531    Y=              1.4357    Z=              0.4315  Tot=              1.8320
 Quadrupole moment (field-independent basis, Debye-Ang):
   XX=            -19.9977   YY=            -18.4016   ZZ=            -25.2606
   XY=             -2.7163   XZ=             -1.7371   YZ=              3.1195

 Normal termination of Gaussian 09 at Fri Apr 12 16:38:24 2019.
