 Gaussian 09, Revision D.01,
 Gaussian 09:  AS64L-G09RevD.01 24-Apr-2013

 --------------------------------------------------------------------
 #p hf 3-21g scf=tight NoSymmetry guess=read opt=(tight,modredundant)
 --------------------------------------------------------------------

 -----------------------------------
 Geometry optimization at the 2D-PES
 -----------------------------------
 Symbolic Z-matrix:
 Charge =  0 Multiplicity = 1

 SCF Done:  E(RHF) =  -226.391178275     A.U. after   13 cycles
 SCF Done:  E(RHF) =  -226.391191656     A.U. after   13 cycles
 SCF Done:  E(RHF) =  -226.391203267     A.U. after   11 cycles
 SCF Done:  E(RHF) =  -226.391203343     A.U. after    9 cycles
 SCF Done:  E(RHF) =  -226.391203356     A.U. after    8 cycles
 Optimization completed.
    -- Stationary point found.

                          Input orientation:
 ---------------------------------------------------------------------
 Center     Atomic      Atomic             Coordinates (Angstroms)
 Number     Number       Type             X           Y           Z
 ---------------------------------------------------------------------
      1          6           0        0.738242    0.638496    0.019665
      2          6           0        1.374803   -0.504586   -0.017919
      3          1           0        1.200836    1.599770    0.091968
      4          1           0        2.443745   -0.532505    0.031188
      5          1           0        0.845803   -1.433795   -0.079678
      6          8           0       -0.667051    0.673654    0.047910
      7          8           0       -1.097052    1.906581   -0.613786
      8          1           0       -0.874737    1.734502   -1.547606
 ---------------------------------------------------------------------

 Alpha  occ. eigenvalues --  -20.53877 -20.52955 -11.24783 -11.17741  -1.48059
 Alpha  occ. eigenvalues --   -1.23989  -1.03740  -0.80566  -0.72539  -0.65670
 Alpha  occ. eigenvalues --   -0.64745  -0.59280  -0.55291  -0.51315  -0.47949
 Alpha  occ. eigenvalues --   -0.37499
 Alpha virt. eigenvalues --    0.16659   0.24066   0.27260   0.31148   0.32793
 Alpha virt. eigenvalues --    0.35555   0.49065   0.56748   0.89164   0.96496
 Alpha virt. eigenvalues --    0.98995   1.06061   1.09807   1.10583   1.24936

 Mulliken charges:
               1
     1  C    0.116855
     2  C   -0.490560
     3  H    0.255715
     4  H    0.230774
     5  H    0.245584
     6  O   -0.387732
     7  O   -0.374801
     8  H    0.404165
 Sum of Mulliken charges =   0.00000

 Dipole moment (field-independent basis, Debye):
    X=              2.2900    Y=             -0.2071    Z=             -2.0062  Tot=              3.0515
 Quadrupole moment (field-independent basis, Debye-Ang):
   XX=            -24.0291   YY=            -23.1751   ZZ=            -21.2427
   XY=              2.3663   XZ=              1.8108   YZ=             -3.0885

 Normal termination of Gaussian 09 at Fri Apr 12 15:27:38 2019.
