 Gaussian 09, Revision D.01,
 Gaussian 09:  AS64L-G09RevD.01 24-Apr-2013

 --------------------------------------------------------------------
 #p hf 3-21g scf=tight NoSymmetry guess=read opt=(tight,modredundant)
 --------------------------------------------------------------------

 -----------------------------------
 Geometry optimization at the 2D-PES
 -----------------------------------
 Symbolic Z-matrix:
 Charge =  0 Multiplicity = 1

 SCF Done:  E(RHF) =  -226.381572545     A.U. after   13 cycles
 SCF Done:  E(RHF) =  -226.381587754     A.U. after   13 cycles
 SCF Done:  E(RHF) =  -226.381599145     A.U. after   11 cycles
 SCF Done:  E(RHF) =  -226.381599306     A.U. after   10 cycles
 SCF Done:  E(RHF) =  -226.381599336     A.U. after    9 cycles
 SCF Done:  E(RHF) =  -226.381599337     A.U. after    6 cycles
 Optimization completed.
    -- Stationary point found.

                          Input orientation:
 ---------------------------------------------------------------------
 Center     Atomic      Atomic             Coordinates (Angstroms)
 Number     Number       Type             X           Y           Z
 ---------------------------------------------------------------------
      1          6           0        0.758762    0.634859    0.015144
      2          6           0        1.385346   -0.513782   -0.010108
      3          1           0        1.248262    1.583522    0.117382
      4          1           0        2.452818   -0.553374    0.057923
      5          1           0        0.845352   -1.435393   -0.084473
      6          8           0       -0.642523    0.685734    0.039695
      7          8           0       -1.133609    1.903375   -0.624168
      8          1           0       -0.394775    2.198797   -1.187103
 ---------------------------------------------------------------------

 Alpha  occ. eigenvalues --  -20.53899 -20.52814 -11.25530 -11.18326  -1.47614
 Alpha  occ. eigenvalues --   -1.24339  -1.04318  -0.81793  -0.72115  -0.66915
 Alpha  occ. eigenvalues --   -0.63191  -0.59139  -0.55225  -0.53266  -0.47539
 Alpha  occ. eigenvalues --   -0.37428
 Alpha virt. eigenvalues --    0.15545   0.23718   0.26114   0.30702   0.33060
 Alpha virt. eigenvalues --    0.35249   0.49677   0.56143   0.88382   0.96108
 Alpha virt. eigenvalues --    0.99005   1.06131   1.09622   1.10917   1.23765

 Mulliken charges:
               1
     1  C    0.099844
     2  C   -0.479487
     3  H    0.239780
     4  H    0.232514
     5  H    0.253111
     6  O   -0.376969
     7  O   -0.368843
     8  H    0.400050
 Sum of Mulliken charges =   0.00000

 Dipole moment (field-independent basis, Debye):
    X=              3.3746    Y=              0.5501    Z=             -1.1893  Tot=              3.6201
 Quadrupole moment (field-independent basis, Debye-Ang):
   XX=            -25.2067   YY=            -19.4287   ZZ=            -23.5308
   XY=              3.7259   XZ=             -0.1529   YZ=             -2.9025

 Normal termination of Gaussian 09 at Fri Apr 12 15:26:07 2019.
