 Gaussian 09, Revision D.01,
 Gaussian 09:  AS64L-G09RevD.01 24-Apr-2013

 --------------------------------------------------------------------
 #p hf 3-21g scf=tight NoSymmetry guess=read opt=(tight,modredundant)
 --------------------------------------------------------------------

 -----------------------------------
 Geometry optimization at the 2D-PES
 -----------------------------------
 Symbolic Z-matrix:
 Charge =  0 Multiplicity = 1

 SCF Done:  E(RHF) =  -226.390132006     A.U. after   12 cycles
 SCF Done:  E(RHF) =  -226.390156063     A.U. after   13 cycles
 SCF Done:  E(RHF) =  -226.390232116     A.U. after   12 cycles
 SCF Done:  E(RHF) =  -226.390232869     A.U. after   10 cycles
 SCF Done:  E(RHF) =  -226.390233030     A.U. after    9 cycles
 SCF Done:  E(RHF) =  -226.390233043     A.U. after    8 cycles
 SCF Done:  E(RHF) =  -226.390233043     A.U. after    6 cycles
 Optimization completed.
    -- Stationary point found.

                          Input orientation:
 ---------------------------------------------------------------------
 Center     Atomic      Atomic             Coordinates (Angstroms)
 Number     Number       Type             X           Y           Z
 ---------------------------------------------------------------------
      1          6           0        0.742955    0.565599    0.052437
      2          6           0        1.446728   -0.534972   -0.058931
      3          1           0        1.171659    1.544389    0.106077
      4          1           0        2.514242   -0.477143   -0.091787
      5          1           0        1.009997   -1.511038   -0.061723
      6          8           0       -0.642498    0.698446    0.060228
      7          8           0       -1.324382   -0.582002   -0.075871
      8          1           0       -0.885815   -0.987706   -0.848275
 ---------------------------------------------------------------------

 Alpha  occ. eigenvalues --  -20.54920 -20.53582 -11.26010 -11.17685  -1.49074
 Alpha  occ. eigenvalues --   -1.24799  -1.04834  -0.81069  -0.72486  -0.68624
 Alpha  occ. eigenvalues --   -0.65378  -0.57323  -0.55213  -0.53658  -0.49098
 Alpha  occ. eigenvalues --   -0.37316
 Alpha virt. eigenvalues --    0.18467   0.21639   0.27717   0.28544   0.33397
 Alpha virt. eigenvalues --    0.36663   0.49250   0.58456   0.87995   0.96099
 Alpha virt. eigenvalues --    1.00301   1.05716   1.08600   1.11097   1.24411

 Mulliken charges:
               1
     1  C    0.146733
     2  C   -0.536661
     3  H    0.270622
     4  H    0.234523
     5  H    0.226729
     6  O   -0.390115
     7  O   -0.361753
     8  H    0.409922
 Sum of Mulliken charges =   0.00000

 Dipole moment (field-independent basis, Debye):
    X=              2.4578    Y=             -0.7849    Z=             -1.5222  Tot=              2.9956
 Quadrupole moment (field-independent basis, Debye-Ang):
   XX=            -25.1295   YY=            -20.9446   ZZ=            -24.2205
   XY=              2.0031   XZ=              1.4944   YZ=              1.9440

 Normal termination of Gaussian 09 at Fri Apr 12 17:55:35 2019.
