 Gaussian 09, Revision D.01,
 Gaussian 09:  AS64L-G09RevD.01 24-Apr-2013

 --------------------------------------------------------------------
 #p hf 3-21g scf=tight NoSymmetry guess=read opt=(tight,modredundant)
 --------------------------------------------------------------------

 -----------------------------------
 Geometry optimization at the 2D-PES
 -----------------------------------
 Symbolic Z-matrix:
 Charge =  0 Multiplicity = 1

 SCF Done:  E(RHF) =  -226.393862692     A.U. after   13 cycles
 SCF Done:  E(RHF) =  -226.393868921     A.U. after   11 cycles
 SCF Done:  E(RHF) =  -226.393873308     A.U. after   10 cycles
 SCF Done:  E(RHF) =  -226.393873327     A.U. after    8 cycles
 SCF Done:  E(RHF) =  -226.393873330     A.U. after    7 cycles
 Optimization completed.
    -- Stationary point found.

                          Input orientation:
 ---------------------------------------------------------------------
 Center     Atomic      Atomic             Coordinates (Angstroms)
 Number     Number       Type             X           Y           Z
 ---------------------------------------------------------------------
      1          6           0        0.731271    0.639198    0.020287
      2          6           0        1.370984   -0.502072   -0.022541
      3          1           0        1.189660    1.602818    0.072630
      4          1           0        2.440185   -0.528402    0.023622
      5          1           0        0.843791   -1.432708   -0.079731
      6          8           0       -0.674514    0.669203    0.052662
      7          8           0       -1.094856    1.774763   -0.812572
      8          1           0       -1.180569    1.326590   -1.673302
 ---------------------------------------------------------------------

 Alpha  occ. eigenvalues --  -20.53610 -20.52656 -11.24492 -11.17642  -1.47769
 Alpha  occ. eigenvalues --   -1.23773  -1.03533  -0.80088  -0.72336  -0.65739
 Alpha  occ. eigenvalues --   -0.63890  -0.60332  -0.55553  -0.49442  -0.48070
 Alpha  occ. eigenvalues --   -0.37734
 Alpha virt. eigenvalues --    0.16873   0.24674   0.27534   0.31166   0.32841
 Alpha virt. eigenvalues --    0.35715   0.49067   0.56813   0.89388   0.96484
 Alpha virt. eigenvalues --    0.99271   1.06114   1.10084   1.11207   1.23843

 Mulliken charges:
               1
     1  C    0.130486
     2  C   -0.489417
     3  H    0.255806
     4  H    0.229954
     5  H    0.242111
     6  O   -0.395841
     7  O   -0.381345
     8  H    0.408246
 Sum of Mulliken charges =   0.00000

 Dipole moment (field-independent basis, Debye):
    X=              1.6828    Y=             -0.7802    Z=             -1.9288  Tot=              2.6760
 Quadrupole moment (field-independent basis, Debye-Ang):
   XX=            -22.7261   YY=            -24.8083   ZZ=            -20.9379
   XY=              2.0465   XZ=              2.7589   YZ=             -1.5310

 Normal termination of Gaussian 09 at Fri Apr 12 15:22:54 2019.
