 Gaussian 09, Revision D.01,
 Gaussian 09:  AS64L-G09RevD.01 24-Apr-2013

 --------------------------------------------------------------------
 #p hf 3-21g scf=tight NoSymmetry guess=read opt=(tight,modredundant)
 --------------------------------------------------------------------

 -----------------------------------
 Geometry optimization at the 2D-PES
 -----------------------------------
 Symbolic Z-matrix:
 Charge =  0 Multiplicity = 1

 SCF Done:  E(RHF) =  -226.393146238     A.U. after   13 cycles
 SCF Done:  E(RHF) =  -226.393151620     A.U. after   11 cycles
 SCF Done:  E(RHF) =  -226.393155413     A.U. after   10 cycles
 SCF Done:  E(RHF) =  -226.393155436     A.U. after    8 cycles
 SCF Done:  E(RHF) =  -226.393155443     A.U. after    8 cycles
 Optimization completed.
    -- Stationary point found.

                          Input orientation:
 ---------------------------------------------------------------------
 Center     Atomic      Atomic             Coordinates (Angstroms)
 Number     Number       Type             X           Y           Z
 ---------------------------------------------------------------------
      1          6           0        0.725256    0.636273    0.025812
      2          6           0        1.370277   -0.501738   -0.024708
      3          1           0        1.183438    1.600961    0.057873
      4          1           0        2.440257   -0.525841    0.007177
      5          1           0        0.845115   -1.434628   -0.067210
      6          8           0       -0.683504    0.660290    0.052640
      7          8           0       -1.104074    1.413731   -1.136943
      8          1           0       -1.181778    0.700199   -1.795633
 ---------------------------------------------------------------------

 Alpha  occ. eigenvalues --  -20.53228 -20.52289 -11.24438 -11.18179  -1.47287
 Alpha  occ. eigenvalues --   -1.23444  -1.03807  -0.80016  -0.72164  -0.65649
 Alpha  occ. eigenvalues --   -0.63548  -0.60677  -0.55890  -0.48416  -0.47343
 Alpha  occ. eigenvalues --   -0.38711
 Alpha virt. eigenvalues --    0.16004   0.25607   0.27757   0.30835   0.32196
 Alpha virt. eigenvalues --    0.35750   0.48888   0.56353   0.88846   0.96441
 Alpha virt. eigenvalues --    0.98638   1.06383   1.09747   1.11313   1.23842

 Mulliken charges:
               1
     1  C    0.126974
     2  C   -0.476994
     3  H    0.250473
     4  H    0.231285
     5  H    0.241221
     6  O   -0.395818
     7  O   -0.383196
     8  H    0.406054
 Sum of Mulliken charges =   0.00000

 Dipole moment (field-independent basis, Debye):
    X=              1.8019    Y=             -1.4634    Z=             -1.5295  Tot=              2.7799
 Quadrupole moment (field-independent basis, Debye-Ang):
   XX=            -22.7079   YY=            -25.0838   ZZ=            -21.4543
   XY=              2.7994   XZ=              2.2228   YZ=              0.8916

 Normal termination of Gaussian 09 at Fri Apr 12 15:14:36 2019.
