 Gaussian 09, Revision D.01,
 Gaussian 09:  AS64L-G09RevD.01 24-Apr-2013

 --------------------------------------------------------------------
 #p hf 3-21g scf=tight NoSymmetry guess=read opt=(tight,modredundant)
 --------------------------------------------------------------------

 -----------------------------------
 Geometry optimization at the 2D-PES
 -----------------------------------
 Symbolic Z-matrix:
 Charge =  0 Multiplicity = 1

 SCF Done:  E(RHF) =  -226.393481859     A.U. after   13 cycles
 SCF Done:  E(RHF) =  -226.393491007     A.U. after   11 cycles
 SCF Done:  E(RHF) =  -226.393499206     A.U. after   10 cycles
 SCF Done:  E(RHF) =  -226.393499250     A.U. after    8 cycles
 SCF Done:  E(RHF) =  -226.393499252     A.U. after    7 cycles
 Optimization completed.
    -- Stationary point found.

                          Input orientation:
 ---------------------------------------------------------------------
 Center     Atomic      Atomic             Coordinates (Angstroms)
 Number     Number       Type             X           Y           Z
 ---------------------------------------------------------------------
      1          6           0        0.738626    0.636973    0.050789
      2          6           0        1.372064   -0.506752   -0.004719
      3          1           0        1.208518    1.594682    0.112872
      4          1           0        2.441843   -0.532659   -0.021012
      5          1           0        0.841387   -1.436049   -0.040287
      6          8           0       -0.663968    0.682720    0.002417
      7          8           0       -1.088885    1.968326    0.552693
      8          1           0       -1.259678    2.472957   -0.262127
 ---------------------------------------------------------------------

 Alpha  occ. eigenvalues --  -20.53856 -20.53103 -11.24565 -11.16771  -1.48173
 Alpha  occ. eigenvalues --   -1.24092  -1.03085  -0.80141  -0.71130  -0.67913
 Alpha  occ. eigenvalues --   -0.65292  -0.56340  -0.54550  -0.53020  -0.48537
 Alpha  occ. eigenvalues --   -0.36379
 Alpha virt. eigenvalues --    0.18606   0.22784   0.27066   0.31842   0.33559
 Alpha virt. eigenvalues --    0.35643   0.49486   0.57356   0.89889   0.96822
 Alpha virt. eigenvalues --    0.99766   1.06346   1.10593   1.11763   1.23654

 Mulliken charges:
               1
     1  C    0.152138
     2  C   -0.501496
     3  H    0.247622
     4  H    0.226989
     5  H    0.243297
     6  O   -0.403407
     7  O   -0.375662
     8  H    0.410519
 Sum of Mulliken charges =   0.00000

 Dipole moment (field-independent basis, Debye):
    X=              1.3918    Y=              1.3598    Z=             -1.5605  Tot=              2.4942
 Quadrupole moment (field-independent basis, Debye-Ang):
   XX=            -22.3261   YY=            -16.8113   ZZ=            -26.1657
   XY=             -0.9469   XZ=              2.0277   YZ=             -3.5300

 Normal termination of Gaussian 09 at Fri Apr 12 15:51:31 2019.
