 Gaussian 09, Revision D.01,
 Gaussian 09:  AS64L-G09RevD.01 24-Apr-2013

 --------------------------------------------------------------------
 #p hf 3-21g scf=tight NoSymmetry guess=read opt=(tight,modredundant)
 --------------------------------------------------------------------

 -----------------------------------
 Geometry optimization at the 2D-PES
 -----------------------------------
 Symbolic Z-matrix:
 Charge =  0 Multiplicity = 1

 SCF Done:  E(RHF) =  -226.394718498     A.U. after   12 cycles
 SCF Done:  E(RHF) =  -226.394724961     A.U. after   11 cycles
 SCF Done:  E(RHF) =  -226.394730366     A.U. after   10 cycles
 SCF Done:  E(RHF) =  -226.394730428     A.U. after    9 cycles
 SCF Done:  E(RHF) =  -226.394730437     A.U. after    8 cycles
 Optimization completed.
    -- Stationary point found.

                          Input orientation:
 ---------------------------------------------------------------------
 Center     Atomic      Atomic             Coordinates (Angstroms)
 Number     Number       Type             X           Y           Z
 ---------------------------------------------------------------------
      1          6           0        0.741053    0.579767    0.061442
      2          6           0        1.418358   -0.535061   -0.035325
      3          1           0        1.181383    1.555497    0.080657
      4          1           0        2.488259   -0.511265   -0.056742
      5          1           0        0.928384   -1.484482   -0.067317
      6          8           0       -0.656871    0.705921    0.049336
      7          8           0       -1.268096   -0.495791    0.612094
      8          1           0       -1.467742   -0.193533    1.515420
 ---------------------------------------------------------------------

 Alpha  occ. eigenvalues --  -20.53686 -20.52777 -11.24304 -11.16632  -1.47835
 Alpha  occ. eigenvalues --   -1.23709  -1.03328  -0.79823  -0.70448  -0.68063
 Alpha  occ. eigenvalues --   -0.63430  -0.59691  -0.55050  -0.49481  -0.48525
 Alpha  occ. eigenvalues --   -0.36698
 Alpha virt. eigenvalues --    0.17832   0.24215   0.28825   0.29756   0.33226
 Alpha virt. eigenvalues --    0.37157   0.49727   0.58136   0.88617   0.96639
 Alpha virt. eigenvalues --    1.00934   1.06879   1.10216   1.12160   1.22854

 Mulliken charges:
               1
     1  C    0.126666
     2  C   -0.491819
     3  H    0.253935
     4  H    0.222538
     5  H    0.255341
     6  O   -0.403230
     7  O   -0.376916
     8  H    0.413484
 Sum of Mulliken charges =   0.00000

 Dipole moment (field-independent basis, Debye):
    X=              1.2893    Y=              0.3528    Z=              2.0487  Tot=              2.4462
 Quadrupole moment (field-independent basis, Debye-Ang):
   XX=            -22.0039   YY=            -22.8188   ZZ=            -21.3521
   XY=              0.7446   XZ=             -3.3238   YZ=              0.2567

 Normal termination of Gaussian 09 at Fri Apr 12 17:25:37 2019.
