 Gaussian 09, Revision D.01,
 Gaussian 09:  AS64L-G09RevD.01 24-Apr-2013

 --------------------------------------------------------------------
 #p hf 3-21g scf=tight NoSymmetry guess=read opt=(tight,modredundant)
 --------------------------------------------------------------------

 -----------------------------------
 Geometry optimization at the 2D-PES
 -----------------------------------
 Symbolic Z-matrix:
 Charge =  0 Multiplicity = 1

 SCF Done:  E(RHF) =  -226.397688617     A.U. after   13 cycles
 SCF Done:  E(RHF) =  -226.397692174     A.U. after   11 cycles
 SCF Done:  E(RHF) =  -226.397697770     A.U. after   11 cycles
 SCF Done:  E(RHF) =  -226.397697826     A.U. after    8 cycles
 SCF Done:  E(RHF) =  -226.397697829     A.U. after    6 cycles
 Optimization completed.
    -- Stationary point found.

                          Input orientation:
 ---------------------------------------------------------------------
 Center     Atomic      Atomic             Coordinates (Angstroms)
 Number     Number       Type             X           Y           Z
 ---------------------------------------------------------------------
      1          6           0        0.733101    0.574699    0.050642
      2          6           0        1.416607   -0.536798   -0.045099
      3          1           0        1.170017    1.550872    0.095035
      4          1           0        2.486213   -0.502935   -0.059626
      5          1           0        0.936951   -1.490210   -0.078101
      6          8           0       -0.655143    0.711282    0.048459
      7          8           0       -1.263826   -0.573122    0.397905
      8          1           0       -2.095189   -0.492561   -0.098792
 ---------------------------------------------------------------------

 Alpha  occ. eigenvalues --  -20.53731 -20.52728 -11.24154 -11.15864  -1.47761
 Alpha  occ. eigenvalues --   -1.24005  -1.02793  -0.79056  -0.71423  -0.66804
 Alpha  occ. eigenvalues --   -0.64616  -0.59080  -0.53539  -0.51730  -0.48008
 Alpha  occ. eigenvalues --   -0.35643
 Alpha virt. eigenvalues --    0.19177   0.23798   0.28805   0.30386   0.33911
 Alpha virt. eigenvalues --    0.37421   0.50106   0.58862   0.89297   0.97329
 Alpha virt. eigenvalues --    1.01421   1.07516   1.10640   1.12988   1.22704

 Mulliken charges:
               1
     1  C    0.154436
     2  C   -0.502189
     3  H    0.256912
     4  H    0.219344
     5  H    0.250759
     6  O   -0.419882
     7  O   -0.381345
     8  H    0.421964
 Sum of Mulliken charges =   0.00000

 Dipole moment (field-independent basis, Debye):
    X=             -0.1781    Y=             -0.0665    Z=             -0.9656  Tot=              0.9841
 Quadrupole moment (field-independent basis, Debye-Ang):
   XX=            -16.9310   YY=            -22.5523   ZZ=            -26.0850
   XY=              2.4132   XZ=              1.7284   YZ=              0.8400

 Normal termination of Gaussian 09 at Fri Apr 12 17:36:20 2019.
