 Gaussian 09, Revision D.01,
 Gaussian 09:  AS64L-G09RevD.01 24-Apr-2013

 --------------------------------------------------------------------
 #p hf 3-21g scf=tight NoSymmetry guess=read opt=(tight,modredundant)
 --------------------------------------------------------------------

 -----------------------------------
 Geometry optimization at the 2D-PES
 -----------------------------------
 Symbolic Z-matrix:
 Charge =  0 Multiplicity = 1

 SCF Done:  E(RHF) =  -226.394673509     A.U. after   13 cycles
 SCF Done:  E(RHF) =  -226.394679515     A.U. after   10 cycles
 SCF Done:  E(RHF) =  -226.394682752     A.U. after   10 cycles
 SCF Done:  E(RHF) =  -226.394682791     A.U. after    8 cycles
 SCF Done:  E(RHF) =  -226.394682796     A.U. after    7 cycles
 Optimization completed.
    -- Stationary point found.

                          Input orientation:
 ---------------------------------------------------------------------
 Center     Atomic      Atomic             Coordinates (Angstroms)
 Number     Number       Type             X           Y           Z
 ---------------------------------------------------------------------
      1          6           0        0.725020    0.638206    0.023766
      2          6           0        1.369182   -0.500193   -0.024070
      3          1           0        1.182704    1.602510    0.065361
      4          1           0        2.438670   -0.523858    0.018453
      5          1           0        0.844662   -1.432470   -0.079471
      6          8           0       -0.680714    0.664544    0.056058
      7          8           0       -1.094577    1.610883   -0.989219
      8          1           0       -1.484771    0.999773   -1.638104
 ---------------------------------------------------------------------

 Alpha  occ. eigenvalues --  -20.53248 -20.52284 -11.24269 -11.17589  -1.47288
 Alpha  occ. eigenvalues --   -1.23565  -1.03362  -0.79778  -0.71720  -0.66132
 Alpha  occ. eigenvalues --   -0.62766  -0.61282  -0.55715  -0.48467  -0.47558
 Alpha  occ. eigenvalues --   -0.37924
 Alpha virt. eigenvalues --    0.16780   0.25326   0.27924   0.31192   0.32740
 Alpha virt. eigenvalues --    0.35821   0.49183   0.56811   0.89413   0.96691
 Alpha virt. eigenvalues --    0.99198   1.06676   1.10226   1.12260   1.22597

 Mulliken charges:
               1
     1  C    0.143971
     2  C   -0.485010
     3  H    0.252369
     4  H    0.229182
     5  H    0.239306
     6  O   -0.404686
     7  O   -0.387444
     8  H    0.412312
 Sum of Mulliken charges =   0.00000

 Dipole moment (field-independent basis, Debye):
    X=              1.0872    Y=             -1.1717    Z=             -1.5456  Tot=              2.2235
 Quadrupole moment (field-independent basis, Debye-Ang):
   XX=            -20.9308   YY=            -25.2960   ZZ=            -21.8823
   XY=              1.9191   XZ=              3.3879   YZ=              0.0233

 Normal termination of Gaussian 09 at Fri Apr 12 15:20:54 2019.
