 Gaussian 09, Revision D.01,
 Gaussian 09:  AS64L-G09RevD.01 24-Apr-2013

 --------------------------------------------------------------------
 #p hf 3-21g scf=tight NoSymmetry guess=read opt=(tight,modredundant)
 --------------------------------------------------------------------

 -----------------------------------
 Geometry optimization at the 2D-PES
 -----------------------------------
 Symbolic Z-matrix:
 Charge =  0 Multiplicity = 1

 SCF Done:  E(RHF) =  -226.392840453     A.U. after   13 cycles
 SCF Done:  E(RHF) =  -226.392853884     A.U. after   12 cycles
 SCF Done:  E(RHF) =  -226.392870934     A.U. after   11 cycles
 SCF Done:  E(RHF) =  -226.392871025     A.U. after    9 cycles
 SCF Done:  E(RHF) =  -226.392871043     A.U. after    8 cycles
 SCF Done:  E(RHF) =  -226.392871044     A.U. after    7 cycles
 Optimization completed.
    -- Stationary point found.

                          Input orientation:
 ---------------------------------------------------------------------
 Center     Atomic      Atomic             Coordinates (Angstroms)
 Number     Number       Type             X           Y           Z
 ---------------------------------------------------------------------
      1          6           0        0.740106    0.573170    0.070312
      2          6           0        1.428568   -0.534511   -0.040992
      3          1           0        1.179265    1.548735    0.090509
      4          1           0        2.497239   -0.495992   -0.076429
      5          1           0        0.969582   -1.500327   -0.040857
      6          8           0       -0.653010    0.704852    0.056895
      7          8           0       -1.293439   -0.489972    0.594448
      8          1           0       -1.408949   -1.033095   -0.205917
 ---------------------------------------------------------------------

 Alpha  occ. eigenvalues --  -20.54103 -20.53225 -11.24934 -11.17164  -1.48327
 Alpha  occ. eigenvalues --   -1.24194  -1.03946  -0.79993  -0.71132  -0.69016
 Alpha  occ. eigenvalues --   -0.65588  -0.56998  -0.54059  -0.52557  -0.48791
 Alpha  occ. eigenvalues --   -0.36973
 Alpha virt. eigenvalues --    0.17603   0.23033   0.28555   0.29113   0.33405
 Alpha virt. eigenvalues --    0.36986   0.49696   0.57923   0.88464   0.96473
 Alpha virt. eigenvalues --    0.99368   1.06497   1.09647   1.11642   1.24616

 Mulliken charges:
               1
     1  C    0.149296
     2  C   -0.504309
     3  H    0.261648
     4  H    0.229585
     5  H    0.223008
     6  O   -0.402674
     7  O   -0.367683
     8  H    0.411131
 Sum of Mulliken charges =   0.00000

 Dipole moment (field-independent basis, Debye):
    X=              1.4092    Y=             -1.2324    Z=             -1.4882  Tot=              2.3916
 Quadrupole moment (field-independent basis, Debye-Ang):
   XX=            -22.4052   YY=            -20.5596   ZZ=            -26.3149
   XY=              3.5270   XZ=              2.3213   YZ=              1.3837

 Normal termination of Gaussian 09 at Fri Apr 12 17:30:02 2019.
