 Gaussian 09, Revision D.01,
 Gaussian 09:  AS64L-G09RevD.01 24-Apr-2013

 --------------------------------------------------------------------
 #p hf 3-21g scf=tight NoSymmetry guess=read opt=(tight,modredundant)
 --------------------------------------------------------------------

 -----------------------------------
 Geometry optimization at the 2D-PES
 -----------------------------------
 Symbolic Z-matrix:
 Charge =  0 Multiplicity = 1

 SCF Done:  E(RHF) =  -226.395879124     A.U. after   13 cycles
 SCF Done:  E(RHF) =  -226.395879714     A.U. after   10 cycles
 SCF Done:  E(RHF) =  -226.395880267     A.U. after   10 cycles
 SCF Done:  E(RHF) =  -226.395880274     A.U. after    7 cycles
 SCF Done:  E(RHF) =  -226.395880274     A.U. after    6 cycles
 Optimization completed.
    -- Stationary point found.

                          Input orientation:
 ---------------------------------------------------------------------
 Center     Atomic      Atomic             Coordinates (Angstroms)
 Number     Number       Type             X           Y           Z
 ---------------------------------------------------------------------
      1          6           0        0.724252    0.634235    0.054479
      2          6           0        1.367746   -0.504335    0.003356
      3          1           0        1.182022    1.597581    0.119497
      4          1           0        2.437784   -0.523419   -0.015097
      5          1           0        0.843409   -1.436968   -0.039305
      6          8           0       -0.673039    0.670420   -0.020886
      7          8           0       -1.092325    1.695021    0.950636
      8          1           0       -2.049750    1.529043    0.945644
 ---------------------------------------------------------------------

 Alpha  occ. eigenvalues --  -20.53133 -20.52135 -11.24047 -11.16833  -1.47034
 Alpha  occ. eigenvalues --   -1.23714  -1.02750  -0.79597  -0.70012  -0.67610
 Alpha  occ. eigenvalues --   -0.63570  -0.59301  -0.55642  -0.50623  -0.46521
 Alpha  occ. eigenvalues --   -0.36589
 Alpha virt. eigenvalues --    0.17561   0.25230   0.28227   0.31853   0.33089
 Alpha virt. eigenvalues --    0.36109   0.49835   0.57391   0.89988   0.97413
 Alpha virt. eigenvalues --    0.99895   1.07166   1.10737   1.12250   1.23640

 Mulliken charges:
               1
     1  C    0.167718
     2  C   -0.492516
     3  H    0.253565
     4  H    0.226407
     5  H    0.239022
     6  O   -0.420717
     7  O   -0.394342
     8  H    0.420862
 Sum of Mulliken charges =   0.00000

 Dipole moment (field-independent basis, Debye):
    X=             -0.2057    Y=             -0.1577    Z=              0.2337  Tot=              0.3490
 Quadrupole moment (field-independent basis, Debye-Ang):
   XX=            -16.2960   YY=            -23.0255   ZZ=            -25.7373
   XY=             -1.5366   XZ=             -2.1867   YZ=              0.0528

 Normal termination of Gaussian 09 at Fri Apr 12 16:00:59 2019.
