 Gaussian 09, Revision D.01,
 Gaussian 09:  AS64L-G09RevD.01 24-Apr-2013

 --------------------------------------------------------------------
 #p hf 3-21g scf=tight NoSymmetry guess=read opt=(tight,modredundant)
 --------------------------------------------------------------------

 -----------------------------------
 Geometry optimization at the 2D-PES
 -----------------------------------
 Symbolic Z-matrix:
 Charge =  0 Multiplicity = 1

 SCF Done:  E(RHF) =  -226.397440348     A.U. after   13 cycles
 SCF Done:  E(RHF) =  -226.397447785     A.U. after   11 cycles
 SCF Done:  E(RHF) =  -226.397455428     A.U. after   10 cycles
 SCF Done:  E(RHF) =  -226.397455546     A.U. after    9 cycles
 SCF Done:  E(RHF) =  -226.397455558     A.U. after    8 cycles
 SCF Done:  E(RHF) =  -226.397455559     A.U. after    6 cycles
 Optimization completed.
    -- Stationary point found.

                          Input orientation:
 ---------------------------------------------------------------------
 Center     Atomic      Atomic             Coordinates (Angstroms)
 Number     Number       Type             X           Y           Z
 ---------------------------------------------------------------------
      1          6           0        0.738236    0.570485    0.043518
      2          6           0        1.426826   -0.538100   -0.046123
      3          1           0        1.168886    1.549557    0.088997
      4          1           0        2.496254   -0.499522   -0.056606
      5          1           0        0.949668   -1.491229   -0.108154
      6          8           0       -0.653115    0.706602    0.050758
      7          8           0       -1.282859   -0.602505    0.179456
      8          1           0       -1.641933   -0.539016    1.081375
 ---------------------------------------------------------------------

 Alpha  occ. eigenvalues --  -20.54116 -20.53042 -11.24447 -11.16136  -1.48287
 Alpha  occ. eigenvalues --   -1.24084  -1.03187  -0.79674  -0.70788  -0.68309
 Alpha  occ. eigenvalues --   -0.64329  -0.58768  -0.54443  -0.50825  -0.48800
 Alpha  occ. eigenvalues --   -0.36187
 Alpha virt. eigenvalues --    0.19556   0.22844   0.28745   0.29884   0.33709
 Alpha virt. eigenvalues --    0.37253   0.49693   0.58806   0.88884   0.96699
 Alpha virt. eigenvalues --    1.01685   1.07176   1.10391   1.12493   1.22393

 Mulliken charges:
               1
     1  C    0.142225
     2  C   -0.508058
     3  H    0.258405
     4  H    0.220739
     5  H    0.252538
     6  O   -0.407321
     7  O   -0.375872
     8  H    0.417344
 Sum of Mulliken charges =   0.00000

 Dipole moment (field-independent basis, Debye):
    X=              0.8178    Y=             -0.0723    Z=              1.9552  Tot=              2.1206
 Quadrupole moment (field-independent basis, Debye-Ang):
   XX=            -20.9845   YY=            -22.5338   ZZ=            -23.1213
   XY=              1.9254   XZ=             -3.5146   YZ=             -0.8432

 Normal termination of Gaussian 09 at Fri Apr 12 17:47:28 2019.
