 Gaussian 09, Revision D.01,
 Gaussian 09:  AS64L-G09RevD.01 24-Apr-2013

 --------------------------------------------------------------------
 #p hf 3-21g scf=tight NoSymmetry guess=read opt=(tight,modredundant)
 --------------------------------------------------------------------

 -----------------------------------
 Geometry optimization at the 2D-PES
 -----------------------------------
 Symbolic Z-matrix:
 Charge =  0 Multiplicity = 1

 SCF Done:  E(RHF) =  -226.394688459     A.U. after   13 cycles
 SCF Done:  E(RHF) =  -226.394689775     A.U. after   11 cycles
 SCF Done:  E(RHF) =  -226.394690592     A.U. after   10 cycles
 SCF Done:  E(RHF) =  -226.394690610     A.U. after    7 cycles
 SCF Done:  E(RHF) =  -226.394690611     A.U. after    6 cycles
 Optimization completed.
    -- Stationary point found.

                          Input orientation:
 ---------------------------------------------------------------------
 Center     Atomic      Atomic             Coordinates (Angstroms)
 Number     Number       Type             X           Y           Z
 ---------------------------------------------------------------------
      1          6           0        0.724242    0.631712    0.048598
      2          6           0        1.368281   -0.506283    0.004681
      3          1           0        1.185618    1.592595    0.128332
      4          1           0        2.438705   -0.528698   -0.000958
      5          1           0        0.841841   -1.437288   -0.048227
      6          8           0       -0.677131    0.666731   -0.026837
      7          8           0       -1.121409    1.300430    1.230847
      8          1           0       -2.041679    0.987560    1.242194
 ---------------------------------------------------------------------

 Alpha  occ. eigenvalues --  -20.52654 -20.51710 -11.23852 -11.17388  -1.46433
 Alpha  occ. eigenvalues --   -1.23298  -1.02973  -0.79388  -0.69719  -0.67772
 Alpha  occ. eigenvalues --   -0.63399  -0.58978  -0.55780  -0.50313  -0.44993
 Alpha  occ. eigenvalues --   -0.37709
 Alpha virt. eigenvalues --    0.16427   0.26671   0.28657   0.31398   0.32321
 Alpha virt. eigenvalues --    0.36158   0.49537   0.57035   0.89482   0.97431
 Alpha virt. eigenvalues --    0.99336   1.07193   1.10449   1.12415   1.23589

 Mulliken charges:
               1
     1  C    0.156834
     2  C   -0.472724
     3  H    0.245206
     4  H    0.227243
     5  H    0.240617
     6  O   -0.419563
     7  O   -0.395372
     8  H    0.417760
 Sum of Mulliken charges =   0.00000

 Dipole moment (field-independent basis, Debye):
    X=              0.0088    Y=             -0.6928    Z=              0.3049  Tot=              0.7570
 Quadrupole moment (field-independent basis, Debye-Ang):
   XX=            -16.4680   YY=            -23.5915   ZZ=            -25.5971
   XY=              0.0601   XZ=             -2.7236   YZ=             -0.4067

 Normal termination of Gaussian 09 at Fri Apr 12 16:14:30 2019.
