 Gaussian 09, Revision D.01,
 Gaussian 09:  AS64L-G09RevD.01 24-Apr-2013

 --------------------------------------------------------------------
 #p hf 3-21g scf=tight NoSymmetry guess=read opt=(tight,modredundant)
 --------------------------------------------------------------------

 -----------------------------------
 Geometry optimization at the 2D-PES
 -----------------------------------
 Symbolic Z-matrix:
 Charge =  0 Multiplicity = 1

 SCF Done:  E(RHF) =  -226.383051717     A.U. after   14 cycles
 SCF Done:  E(RHF) =  -226.383235967     A.U. after   13 cycles
 SCF Done:  E(RHF) =  -226.383354917     A.U. after   12 cycles
 SCF Done:  E(RHF) =  -226.383356431     A.U. after   11 cycles
 SCF Done:  E(RHF) =  -226.383356873     A.U. after    9 cycles
 SCF Done:  E(RHF) =  -226.383356886     A.U. after    7 cycles
 SCF Done:  E(RHF) =  -226.383356887     A.U. after    6 cycles
 Optimization completed.
    -- Stationary point found.

                          Input orientation:
 ---------------------------------------------------------------------
 Center     Atomic      Atomic             Coordinates (Angstroms)
 Number     Number       Type             X           Y           Z
 ---------------------------------------------------------------------
      1          6           0        0.737310    0.592452    0.010245
      2          6           0        1.425253   -0.522682    0.011935
      3          1           0        1.189826    1.558978    0.083910
      4          1           0        2.493524   -0.491157    0.064781
      5          1           0        0.976904   -1.495928   -0.031498
      6          8           0       -0.663512    0.697728   -0.016308
      7          8           0       -1.267744   -0.117239   -1.074743
      8          1           0       -0.863994   -0.993646   -0.955391
 ---------------------------------------------------------------------

 Alpha  occ. eigenvalues --  -20.53611 -20.52849 -11.25672 -11.18834  -1.47584
 Alpha  occ. eigenvalues --   -1.24054  -1.05132  -0.80778  -0.72923  -0.67272
 Alpha  occ. eigenvalues --   -0.64658  -0.58781  -0.55384  -0.51834  -0.47645
 Alpha  occ. eigenvalues --   -0.38264
 Alpha virt. eigenvalues --    0.15276   0.22217   0.27693   0.28523   0.34772
 Alpha virt. eigenvalues --    0.36684   0.50155   0.57481   0.87768   0.95560
 Alpha virt. eigenvalues --    0.99591   1.05418   1.08495   1.10825   1.24907

 Mulliken charges:
               1
     1  C    0.137146
     2  C   -0.502086
     3  H    0.262024
     4  H    0.241408
     5  H    0.213360
     6  O   -0.394139
     7  O   -0.363942
     8  H    0.406230
 Sum of Mulliken charges =   0.00000

 Dipole moment (field-independent basis, Debye):
    X=              2.6864    Y=             -1.8300    Z=              0.1071  Tot=              3.2523
 Quadrupole moment (field-independent basis, Debye-Ang):
   XX=            -24.6087   YY=            -20.0995   ZZ=            -26.2050
   XY=              3.0292   XZ=             -0.7859   YZ=              1.8070

 Normal termination of Gaussian 09 at Fri Apr 12 14:51:14 2019.
