 Gaussian 09, Revision D.01,
 Gaussian 09:  AS64L-G09RevD.01 24-Apr-2013

 --------------------------------------------------------------------
 #p hf 3-21g scf=tight NoSymmetry guess=read opt=(tight,modredundant)
 --------------------------------------------------------------------

 -----------------------------------
 Geometry optimization at the 2D-PES
 -----------------------------------
 Symbolic Z-matrix:
 Charge =  0 Multiplicity = 1

 SCF Done:  E(RHF) =  -226.379632885     A.U. after   13 cycles
 SCF Done:  E(RHF) =  -226.379645589     A.U. after   13 cycles
 SCF Done:  E(RHF) =  -226.379657817     A.U. after   11 cycles
 SCF Done:  E(RHF) =  -226.379657938     A.U. after    9 cycles
 SCF Done:  E(RHF) =  -226.379657966     A.U. after    9 cycles
 SCF Done:  E(RHF) =  -226.379657967     A.U. after    5 cycles
 Optimization completed.
    -- Stationary point found.

                          Input orientation:
 ---------------------------------------------------------------------
 Center     Atomic      Atomic             Coordinates (Angstroms)
 Number     Number       Type             X           Y           Z
 ---------------------------------------------------------------------
      1          6           0        0.763806    0.631639    0.023226
      2          6           0        1.384656   -0.519964   -0.006102
      3          1           0        1.269512    1.572431    0.118050
      4          1           0        2.453032   -0.560726    0.038975
      5          1           0        0.842467   -1.440813   -0.071372
      6          8           0       -0.636040    0.694565    0.024780
      7          8           0       -1.128708    2.061445   -0.176370
      8          1           0       -0.384889    2.544501   -0.579853
 ---------------------------------------------------------------------

 Alpha  occ. eigenvalues --  -20.54162 -20.53281 -11.25875 -11.17734  -1.48046
 Alpha  occ. eigenvalues --   -1.24665  -1.04184  -0.82053  -0.72104  -0.66805
 Alpha  occ. eigenvalues --   -0.64162  -0.58749  -0.55120  -0.53228  -0.48879
 Alpha  occ. eigenvalues --   -0.36646
 Alpha virt. eigenvalues --    0.17192   0.22202   0.24318   0.30989   0.33888
 Alpha virt. eigenvalues --    0.35611   0.50950   0.56330   0.88708   0.95962
 Alpha virt. eigenvalues --    0.99172   1.05782   1.09846   1.11126   1.23174

 Mulliken charges:
               1
     1  C    0.121013
     2  C   -0.491748
     3  H    0.232266
     4  H    0.231178
     5  H    0.250749
     6  O   -0.381644
     7  O   -0.361812
     8  H    0.399997
 Sum of Mulliken charges =   0.00000

 Dipole moment (field-independent basis, Debye):
    X=              3.2840    Y=              1.0960    Z=             -0.8109  Tot=              3.5557
 Quadrupole moment (field-independent basis, Debye-Ang):
   XX=            -25.2557   YY=            -17.1357   ZZ=            -25.1359
   XY=              3.9009   XZ=              0.2828   YZ=             -2.2084

 Normal termination of Gaussian 09 at Fri Apr 12 15:34:14 2019.
