 Gaussian 09, Revision D.01,
 Gaussian 09:  AS64L-G09RevD.01 24-Apr-2013

 --------------------------------------------------------------------
 #p hf 3-21g scf=tight NoSymmetry guess=read opt=(tight,modredundant)
 --------------------------------------------------------------------

 -----------------------------------
 Geometry optimization at the 2D-PES
 -----------------------------------
 Symbolic Z-matrix:
 Charge =  0 Multiplicity = 1

 SCF Done:  E(RHF) =  -226.397095752     A.U. after   13 cycles
 SCF Done:  E(RHF) =  -226.397103517     A.U. after   12 cycles
 SCF Done:  E(RHF) =  -226.397115479     A.U. after   11 cycles
 SCF Done:  E(RHF) =  -226.397115568     A.U. after    9 cycles
 SCF Done:  E(RHF) =  -226.397115573     A.U. after    7 cycles
 Optimization completed.
    -- Stationary point found.

                          Input orientation:
 ---------------------------------------------------------------------
 Center     Atomic      Atomic             Coordinates (Angstroms)
 Number     Number       Type             X           Y           Z
 ---------------------------------------------------------------------
      1          6           0        0.736709    0.572725    0.055179
      2          6           0        1.423082   -0.536373   -0.047063
      3          1           0        1.171092    1.550067    0.095768
      4          1           0        2.492326   -0.500103   -0.069682
      5          1           0        0.948168   -1.492703   -0.066821
      6          8           0       -0.653972    0.708183    0.053075
      7          8           0       -1.276682   -0.568182    0.391667
      8          1           0       -1.802583   -0.725039   -0.411337
 ---------------------------------------------------------------------

 Alpha  occ. eigenvalues --  -20.53970 -20.53015 -11.24409 -11.16217  -1.48125
 Alpha  occ. eigenvalues --   -1.24098  -1.03172  -0.79401  -0.70632  -0.68878
 Alpha  occ. eigenvalues --   -0.64906  -0.57388  -0.53617  -0.52503  -0.48480
 Alpha  occ. eigenvalues --   -0.36101
 Alpha virt. eigenvalues --    0.18904   0.23424   0.28884   0.29922   0.33448
 Alpha virt. eigenvalues --    0.37279   0.49790   0.58544   0.88981   0.96858
 Alpha virt. eigenvalues --    1.01464   1.07190   1.10339   1.12710   1.22256

 Mulliken charges:
               1
     1  C    0.150695
     2  C   -0.504791
     3  H    0.258874
     4  H    0.222002
     5  H    0.242713
     6  O   -0.411721
     7  O   -0.375526
     8  H    0.417753
 Sum of Mulliken charges =   0.00000

 Dipole moment (field-independent basis, Debye):
    X=              0.4784    Y=             -0.5235    Z=             -1.5977  Tot=              1.7480
 Quadrupole moment (field-independent basis, Debye-Ang):
   XX=            -19.6374   YY=            -21.9292   ZZ=            -25.6297
   XY=              3.0421   XZ=              2.9042   YZ=              1.4024

 Normal termination of Gaussian 09 at Fri Apr 12 17:35:41 2019.
