 Gaussian 09, Revision D.01,
 Gaussian 09:  AS64L-G09RevD.01 24-Apr-2013

 --------------------------------------------------------------------
 #p hf 3-21g scf=tight NoSymmetry guess=read opt=(tight,modredundant)
 --------------------------------------------------------------------

 -----------------------------------
 Geometry optimization at the 2D-PES
 -----------------------------------
 Symbolic Z-matrix:
 Charge =  0 Multiplicity = 1

 SCF Done:  E(RHF) =  -226.388975960     A.U. after   13 cycles
 SCF Done:  E(RHF) =  -226.388991089     A.U. after   13 cycles
 SCF Done:  E(RHF) =  -226.389034984     A.U. after   12 cycles
 SCF Done:  E(RHF) =  -226.389035241     A.U. after   10 cycles
 SCF Done:  E(RHF) =  -226.389035271     A.U. after    9 cycles
 SCF Done:  E(RHF) =  -226.389035277     A.U. after    8 cycles
 Optimization completed.
    -- Stationary point found.

                          Input orientation:
 ---------------------------------------------------------------------
 Center     Atomic      Atomic             Coordinates (Angstroms)
 Number     Number       Type             X           Y           Z
 ---------------------------------------------------------------------
      1          6           0        0.744387    0.577007    0.031144
      2          6           0        1.435980   -0.534875   -0.040836
      3          1           0        1.178294    1.553731    0.078090
      4          1           0        2.505007   -0.499333   -0.033149
      5          1           0        0.970770   -1.493230   -0.141629
      6          8           0       -0.645255    0.696811    0.042558
      7          8           0       -1.298652   -0.551560    0.430134
      8          1           0       -0.727992   -0.890020    1.147582
 ---------------------------------------------------------------------

 Alpha  occ. eigenvalues --  -20.54575 -20.53333 -11.25963 -11.17974  -1.48656
 Alpha  occ. eigenvalues --   -1.24530  -1.04940  -0.81155  -0.72227  -0.68632
 Alpha  occ. eigenvalues --   -0.64367  -0.57513  -0.56221  -0.53198  -0.48445
 Alpha  occ. eigenvalues --   -0.37521
 Alpha virt. eigenvalues --    0.17326   0.22741   0.27803   0.28823   0.32166
 Alpha virt. eigenvalues --    0.36660   0.49429   0.57583   0.87752   0.96237
 Alpha virt. eigenvalues --    1.00316   1.05344   1.08474   1.11061   1.23846

 Mulliken charges:
               1
     1  C    0.130506
     2  C   -0.529909
     3  H    0.268862
     4  H    0.234352
     5  H    0.239497
     6  O   -0.386829
     7  O   -0.363238
     8  H    0.406760
 Sum of Mulliken charges =   0.00000

 Dipole moment (field-independent basis, Debye):
    X=              2.8120    Y=             -0.7074    Z=              1.4717  Tot=              3.2517
 Quadrupole moment (field-independent basis, Debye-Ang):
   XX=            -25.4606   YY=            -21.2241   ZZ=            -23.3016
   XY=              1.5347   XZ=             -0.6024   YZ=             -1.4534

 Normal termination of Gaussian 09 at Fri Apr 12 17:41:36 2019.
