 Gaussian 09, Revision D.01,
 Gaussian 09:  AS64L-G09RevD.01 24-Apr-2013

 --------------------------------------------------------------------
 #p hf 3-21g scf=tight NoSymmetry guess=read opt=(tight,modredundant)
 --------------------------------------------------------------------

 -----------------------------------
 Geometry optimization at the 2D-PES
 -----------------------------------
 Symbolic Z-matrix:
 Charge =  0 Multiplicity = 1

 SCF Done:  E(RHF) =  -226.388034215     A.U. after   13 cycles
 SCF Done:  E(RHF) =  -226.388038913     A.U. after   11 cycles
 SCF Done:  E(RHF) =  -226.388045033     A.U. after   10 cycles
 SCF Done:  E(RHF) =  -226.388045042     A.U. after    7 cycles
 SCF Done:  E(RHF) =  -226.388045044     A.U. after    6 cycles
 Optimization completed.
    -- Stationary point found.

                          Input orientation:
 ---------------------------------------------------------------------
 Center     Atomic      Atomic             Coordinates (Angstroms)
 Number     Number       Type             X           Y           Z
 ---------------------------------------------------------------------
      1          6           0        0.746165    0.605342    0.052639
      2          6           0        1.402140   -0.523868   -0.021654
      3          1           0        1.208631    1.570818    0.080574
      4          1           0        2.472981   -0.533334   -0.026691
      5          1           0        0.885384   -1.461071   -0.056791
      6          8           0       -0.664415    0.692986    0.019910
      7          8           0       -1.229776   -0.062812    1.144417
      8          1           0       -0.975761    0.483365    1.910737
 ---------------------------------------------------------------------

 Alpha  occ. eigenvalues --  -20.52854 -20.52208 -11.24232 -11.18112  -1.46853
 Alpha  occ. eigenvalues --   -1.23078  -1.03931  -0.80400  -0.69554  -0.68840
 Alpha  occ. eigenvalues --   -0.61444  -0.59787  -0.56645  -0.49123  -0.46456
 Alpha  occ. eigenvalues --   -0.38330
 Alpha virt. eigenvalues --    0.15008   0.26293   0.28518   0.29400   0.31845
 Alpha virt. eigenvalues --    0.36773   0.49681   0.56409   0.87853   0.96626
 Alpha virt. eigenvalues --    0.98877   1.06265   1.09534   1.10878   1.24487

 Mulliken charges:
               1
     1  C    0.089537
     2  C   -0.454442
     3  H    0.243520
     4  H    0.228150
     5  H    0.258258
     6  O   -0.391226
     7  O   -0.375085
     8  H    0.401288
 Sum of Mulliken charges =   0.00000

 Dipole moment (field-independent basis, Debye):
    X=              2.5175    Y=              0.6988    Z=              1.7751  Tot=              3.1587
 Quadrupole moment (field-independent basis, Debye-Ang):
   XX=            -24.1036   YY=            -21.7780   ZZ=            -20.5374
   XY=             -0.0155   XZ=             -1.0699   YZ=              2.4717

 Normal termination of Gaussian 09 at Fri Apr 12 17:03:12 2019.
