 Gaussian 09, Revision D.01,
 Gaussian 09:  AS64L-G09RevD.01 24-Apr-2013

 --------------------------------------------------------------------
 #p hf 3-21g scf=tight NoSymmetry guess=read opt=(tight,modredundant)
 --------------------------------------------------------------------

 -----------------------------------
 Geometry optimization at the 2D-PES
 -----------------------------------
 Symbolic Z-matrix:
 Charge =  0 Multiplicity = 1

 SCF Done:  E(RHF) =  -226.390511617     A.U. after   13 cycles
 SCF Done:  E(RHF) =  -226.390518465     A.U. after   11 cycles
 SCF Done:  E(RHF) =  -226.390522833     A.U. after   10 cycles
 SCF Done:  E(RHF) =  -226.390522864     A.U. after    8 cycles
 SCF Done:  E(RHF) =  -226.390522869     A.U. after    7 cycles
 Optimization completed.
    -- Stationary point found.

                          Input orientation:
 ---------------------------------------------------------------------
 Center     Atomic      Atomic             Coordinates (Angstroms)
 Number     Number       Type             X           Y           Z
 ---------------------------------------------------------------------
      1          6           0        0.741318    0.604751    0.055406
      2          6           0        1.397720   -0.523366   -0.020911
      3          1           0        1.205550    1.569275    0.089040
      4          1           0        2.468573   -0.530649   -0.025325
      5          1           0        0.883928   -1.462027   -0.054768
      6          8           0       -0.667416    0.693644    0.019264
      7          8           0       -1.224099   -0.068922    1.143614
      8          1           0       -1.413241    0.645455    1.777222
 ---------------------------------------------------------------------

 Alpha  occ. eigenvalues --  -20.52654 -20.52042 -11.23843 -11.17507  -1.46671
 Alpha  occ. eigenvalues --   -1.22998  -1.03377  -0.79728  -0.70131  -0.67301
 Alpha  occ. eigenvalues --   -0.62285  -0.60491  -0.55669  -0.47831  -0.46964
 Alpha  occ. eigenvalues --   -0.37882
 Alpha virt. eigenvalues --    0.15712   0.25962   0.29108   0.30130   0.32281
 Alpha virt. eigenvalues --    0.36908   0.49827   0.56900   0.88387   0.96906
 Alpha virt. eigenvalues --    0.99356   1.06416   1.10027   1.12189   1.23628

 Mulliken charges:
               1
     1  C    0.112928
     2  C   -0.455974
     3  H    0.239799
     4  H    0.225346
     5  H    0.255290
     6  O   -0.404578
     7  O   -0.380741
     8  H    0.407930
 Sum of Mulliken charges =   0.00000

 Dipole moment (field-independent basis, Debye):
    X=              1.5801    Y=              1.0827    Z=              1.5854  Tot=              2.4864
 Quadrupole moment (field-independent basis, Debye-Ang):
   XX=            -21.9122   YY=            -21.3758   ZZ=            -21.5273
   XY=             -1.0081   XZ=             -2.5512   YZ=              3.0400

 Normal termination of Gaussian 09 at Fri Apr 12 17:02:36 2019.
