 Gaussian 09, Revision D.01,
 Gaussian 09:  AS64L-G09RevD.01 24-Apr-2013

 --------------------------------------------------------------------
 #p hf 3-21g scf=tight NoSymmetry guess=read opt=(tight,modredundant)
 --------------------------------------------------------------------

 -----------------------------------
 Geometry optimization at the 2D-PES
 -----------------------------------
 Symbolic Z-matrix:
 Charge =  0 Multiplicity = 1

 SCF Done:  E(RHF) =  -226.386320608     A.U. after   13 cycles
 SCF Done:  E(RHF) =  -226.386313861     A.U. after   13 cycles
 SCF Done:  E(RHF) =  -226.386446736     A.U. after   11 cycles
 SCF Done:  E(RHF) =  -226.386447334     A.U. after   10 cycles
 SCF Done:  E(RHF) =  -226.386447455     A.U. after    9 cycles
 SCF Done:  E(RHF) =  -226.386447466     A.U. after    8 cycles
 Optimization completed.
    -- Stationary point found.

                          Input orientation:
 ---------------------------------------------------------------------
 Center     Atomic      Atomic             Coordinates (Angstroms)
 Number     Number       Type             X           Y           Z
 ---------------------------------------------------------------------
      1          6           0        0.746063    0.556597    0.063611
      2          6           0        1.463141   -0.535545   -0.049716
      3          1           0        1.174430    1.536326    0.101273
      4          1           0        2.529355   -0.458818   -0.086061
      5          1           0        1.058613   -1.526181   -0.051592
      6          8           0       -0.636738    0.698448    0.060297
      7          8           0       -1.360044   -0.565026    0.140476
      8          1           0       -0.852353   -1.167064   -0.432925
 ---------------------------------------------------------------------

 Alpha  occ. eigenvalues --  -20.54967 -20.53543 -11.26321 -11.18022  -1.48990
 Alpha  occ. eigenvalues --   -1.25027  -1.05144  -0.81290  -0.73156  -0.68259
 Alpha  occ. eigenvalues --   -0.65458  -0.57901  -0.54557  -0.54123  -0.49275
 Alpha  occ. eigenvalues --   -0.37371
 Alpha virt. eigenvalues --    0.18174   0.21179   0.27185   0.27802   0.35167
 Alpha virt. eigenvalues --    0.36705   0.49238   0.59543   0.88017   0.95624
 Alpha virt. eigenvalues --    1.00580   1.05580   1.08211   1.10954   1.24387

 Mulliken charges:
               1
     1  C    0.151847
     2  C   -0.537316
     3  H    0.272635
     4  H    0.239162
     5  H    0.212429
     6  O   -0.390511
     7  O   -0.361883
     8  H    0.413636
 Sum of Mulliken charges =   0.00000

 Dipole moment (field-independent basis, Debye):
    X=              2.5996    Y=             -1.1459    Z=             -1.0743  Tot=              3.0373
 Quadrupole moment (field-independent basis, Debye-Ang):
   XX=            -25.3390   YY=            -20.0785   ZZ=            -25.4431
   XY=              2.2944   XZ=              1.2330   YZ=              1.4984

 Normal termination of Gaussian 09 at Fri Apr 12 17:53:21 2019.
