 Gaussian 09, Revision D.01,
 Gaussian 09:  AS64L-G09RevD.01 24-Apr-2013

 --------------------------------------------------------------------
 #p hf 3-21g scf=tight NoSymmetry guess=read opt=(tight,modredundant)
 --------------------------------------------------------------------

 -----------------------------------
 Geometry optimization at the 2D-PES
 -----------------------------------
 Symbolic Z-matrix:
 Charge =  0 Multiplicity = 1

 SCF Done:  E(RHF) =  -226.395186107     A.U. after   13 cycles
 SCF Done:  E(RHF) =  -226.395193270     A.U. after   11 cycles
 SCF Done:  E(RHF) =  -226.395197785     A.U. after   10 cycles
 SCF Done:  E(RHF) =  -226.395197845     A.U. after    8 cycles
 SCF Done:  E(RHF) =  -226.395197847     A.U. after    6 cycles
 Optimization completed.
    -- Stationary point found.

                          Input orientation:
 ---------------------------------------------------------------------
 Center     Atomic      Atomic             Coordinates (Angstroms)
 Number     Number       Type             X           Y           Z
 ---------------------------------------------------------------------
      1          6           0        0.733756    0.636392    0.054635
      2          6           0        1.370560   -0.505274    0.001260
      3          1           0        1.199382    1.596238    0.119111
      4          1           0        2.440364   -0.531674   -0.022356
      5          1           0        0.838213   -1.433561   -0.033215
      6          8           0       -0.667120    0.675853   -0.015684
      7          8           0       -1.106866    1.692785    0.946067
      8          1           0       -1.568584    2.307141    0.350127
 ---------------------------------------------------------------------

 Alpha  occ. eigenvalues --  -20.53401 -20.52501 -11.24184 -11.16982  -1.47505
 Alpha  occ. eigenvalues --   -1.23775  -1.02955  -0.79748  -0.69936  -0.68597
 Alpha  occ. eigenvalues --   -0.65162  -0.56359  -0.54706  -0.52055  -0.47573
 Alpha  occ. eigenvalues --   -0.36749
 Alpha virt. eigenvalues --    0.17482   0.24843   0.27847   0.31796   0.32973
 Alpha virt. eigenvalues --    0.35830   0.49364   0.57270   0.89882   0.97097
 Alpha virt. eigenvalues --    0.99887   1.06772   1.10749   1.12573   1.22565

 Mulliken charges:
               1
     1  C    0.156622
     2  C   -0.488469
     3  H    0.241707
     4  H    0.226385
     5  H    0.244875
     6  O   -0.409686
     7  O   -0.384307
     8  H    0.412872
 Sum of Mulliken charges =   0.00000

 Dipole moment (field-independent basis, Debye):
    X=              0.8658    Y=              1.4326    Z=             -1.0374  Tot=              1.9693
 Quadrupole moment (field-independent basis, Debye-Ang):
   XX=            -20.4168   YY=            -16.4455   ZZ=            -27.3675
   XY=             -2.7291   XZ=              1.0199   YZ=             -1.4261

 Normal termination of Gaussian 09 at Fri Apr 12 16:02:43 2019.
