 Gaussian 09, Revision D.01,
 Gaussian 09:  AS64L-G09RevD.01 24-Apr-2013

 --------------------------------------------------------------------
 #p hf 3-21g scf=tight NoSymmetry guess=read opt=(tight,modredundant)
 --------------------------------------------------------------------

 -----------------------------------
 Geometry optimization at the 2D-PES
 -----------------------------------
 Symbolic Z-matrix:
 Charge =  0 Multiplicity = 1

 SCF Done:  E(RHF) =  -226.385436723     A.U. after   11 cycles
 SCF Done:  E(RHF) =  -226.385475507     A.U. after   13 cycles
 SCF Done:  E(RHF) =  -226.385562205     A.U. after   12 cycles
 SCF Done:  E(RHF) =  -226.385563454     A.U. after   11 cycles
 SCF Done:  E(RHF) =  -226.385563604     A.U. after   10 cycles
 SCF Done:  E(RHF) =  -226.385563615     A.U. after    8 cycles
 Optimization completed.
    -- Stationary point found.

                          Input orientation:
 ---------------------------------------------------------------------
 Center     Atomic      Atomic             Coordinates (Angstroms)
 Number     Number       Type             X           Y           Z
 ---------------------------------------------------------------------
      1          6           0        0.747346    0.557342    0.053852
      2          6           0        1.466652   -0.534399   -0.054553
      3          1           0        1.173847    1.537011    0.108634
      4          1           0        2.532957   -0.456745   -0.083191
      5          1           0        1.062592   -1.525499   -0.060954
      6          8           0       -0.634292    0.695837    0.055463
      7          8           0       -1.362716   -0.560802   -0.083964
      8          1           0       -0.771564   -1.126688   -0.612459
 ---------------------------------------------------------------------

 Alpha  occ. eigenvalues --  -20.55017 -20.53510 -11.26510 -11.18120  -1.48988
 Alpha  occ. eigenvalues --   -1.25113  -1.05290  -0.81447  -0.73315  -0.68337
 Alpha  occ. eigenvalues --   -0.65077  -0.58078  -0.54938  -0.54118  -0.49250
 Alpha  occ. eigenvalues --   -0.37371
 Alpha virt. eigenvalues --    0.18194   0.21126   0.27112   0.27787   0.34914
 Alpha virt. eigenvalues --    0.36695   0.49189   0.59570   0.87936   0.95517
 Alpha virt. eigenvalues --    1.01019   1.05483   1.07985   1.10919   1.23888

 Mulliken charges:
               1
     1  C    0.151626
     2  C   -0.543636
     3  H    0.273989
     4  H    0.240030
     5  H    0.215106
     6  O   -0.389495
     7  O   -0.362195
     8  H    0.414576
 Sum of Mulliken charges =   0.00000

 Dipole moment (field-independent basis, Debye):
    X=              2.7662    Y=             -1.0514    Z=             -1.0194  Tot=              3.1299
 Quadrupole moment (field-independent basis, Debye-Ang):
   XX=            -25.6221   YY=            -20.2442   ZZ=            -25.0355
   XY=              2.0397   XZ=              0.8650   YZ=              1.6222

 Normal termination of Gaussian 09 at Fri Apr 12 17:54:47 2019.
