 Gaussian 09, Revision D.01,
 Gaussian 09:  AS64L-G09RevD.01 24-Apr-2013

 --------------------------------------------------------------------
 #p hf 3-21g scf=tight NoSymmetry guess=read opt=(tight,modredundant)
 --------------------------------------------------------------------

 -----------------------------------
 Geometry optimization at the 2D-PES
 -----------------------------------
 Symbolic Z-matrix:
 Charge =  0 Multiplicity = 1

 SCF Done:  E(RHF) =  -226.381520500     A.U. after   13 cycles
 SCF Done:  E(RHF) =  -226.381522733     A.U. after   11 cycles
 SCF Done:  E(RHF) =  -226.381524388     A.U. after   11 cycles
 SCF Done:  E(RHF) =  -226.381524405     A.U. after    7 cycles
 SCF Done:  E(RHF) =  -226.381524407     A.U. after    6 cycles
 Optimization completed.
    -- Stationary point found.

                          Input orientation:
 ---------------------------------------------------------------------
 Center     Atomic      Atomic             Coordinates (Angstroms)
 Number     Number       Type             X           Y           Z
 ---------------------------------------------------------------------
      1          6           0        0.756682    0.623215    0.046906
      2          6           0        1.387995   -0.521872   -0.002027
      3          1           0        1.244728    1.578012    0.081243
      4          1           0        2.458145   -0.559674   -0.022267
      5          1           0        0.844667   -1.443779   -0.043172
      6          8           0       -0.649537    0.681130   -0.011035
      7          8           0       -1.195407    1.088473    1.301656
      8          1           0       -0.447970    1.516816    1.758957
 ---------------------------------------------------------------------

 Alpha  occ. eigenvalues --  -20.53007 -20.51978 -11.24974 -11.19260  -1.46477
 Alpha  occ. eigenvalues --   -1.23537  -1.04589  -0.81541  -0.71038  -0.68122
 Alpha  occ. eigenvalues --   -0.60451  -0.59141  -0.57147  -0.51950  -0.44886
 Alpha  occ. eigenvalues --   -0.39255
 Alpha virt. eigenvalues --    0.13910   0.26295   0.26995   0.29844   0.31844
 Alpha virt. eigenvalues --    0.35434   0.49306   0.55547   0.87533   0.96087
 Alpha virt. eigenvalues --    0.98491   1.06081   1.09229   1.10901   1.24494

 Mulliken charges:
               1
     1  C    0.071603
     2  C   -0.444678
     3  H    0.233526
     4  H    0.232913
     5  H    0.259865
     6  O   -0.375700
     7  O   -0.374205
     8  H    0.396675
 Sum of Mulliken charges =   0.00000

 Dipole moment (field-independent basis, Debye):
    X=              3.5916    Y=              0.4418    Z=              1.0549  Tot=              3.7692
 Quadrupole moment (field-independent basis, Debye-Ang):
   XX=            -25.2214   YY=            -19.8535   ZZ=            -22.7178
   XY=              2.2067   XZ=              1.4743   YZ=              2.9332

 Normal termination of Gaussian 09 at Fri Apr 12 16:20:38 2019.
