 Gaussian 09, Revision D.01,
 Gaussian 09:  AS64L-G09RevD.01 24-Apr-2013

 --------------------------------------------------------------------
 #p hf 3-21g scf=tight NoSymmetry guess=read opt=(tight,modredundant)
 --------------------------------------------------------------------

 -----------------------------------
 Geometry optimization at the 2D-PES
 -----------------------------------
 Symbolic Z-matrix:
 Charge =  0 Multiplicity = 1

 SCF Done:  E(RHF) =  -226.397539890     A.U. after   13 cycles
 SCF Done:  E(RHF) =  -226.397540977     A.U. after   10 cycles
 SCF Done:  E(RHF) =  -226.397542252     A.U. after   10 cycles
 SCF Done:  E(RHF) =  -226.397542271     A.U. after    7 cycles
 SCF Done:  E(RHF) =  -226.397542273     A.U. after    6 cycles
 Optimization completed.
    -- Stationary point found.

                          Input orientation:
 ---------------------------------------------------------------------
 Center     Atomic      Atomic             Coordinates (Angstroms)
 Number     Number       Type             X           Y           Z
 ---------------------------------------------------------------------
      1          6           0        0.731772    0.575780    0.050601
      2          6           0        1.413920   -0.536699   -0.043821
      3          1           0        1.169989    1.551516    0.093390
      4          1           0        2.483642   -0.503970   -0.056414
      5          1           0        0.933345   -1.489635   -0.081754
      6          8           0       -0.655304    0.712357    0.047833
      7          8           0       -1.259112   -0.575363    0.399320
      8          1           0       -2.185882   -0.367292    0.194516
 ---------------------------------------------------------------------

 Alpha  occ. eigenvalues --  -20.53650 -20.52604 -11.24088 -11.15769  -1.47629
 Alpha  occ. eigenvalues --   -1.23971  -1.02680  -0.78982  -0.71723  -0.65379
 Alpha  occ. eigenvalues --   -0.64560  -0.60497  -0.53578  -0.51223  -0.47817
 Alpha  occ. eigenvalues --   -0.35517
 Alpha virt. eigenvalues --    0.19308   0.23811   0.28713   0.30570   0.34085
 Alpha virt. eigenvalues --    0.37437   0.50257   0.58968   0.89397   0.97552
 Alpha virt. eigenvalues --    1.00829   1.07617   1.10737   1.12770   1.23875

 Mulliken charges:
               1
     1  C    0.156295
     2  C   -0.501780
     3  H    0.256233
     4  H    0.218745
     5  H    0.253545
     6  O   -0.422788
     7  O   -0.383800
     8  H    0.423548
 Sum of Mulliken charges =   0.00000

 Dipole moment (field-independent basis, Debye):
    X=             -0.3820    Y=              0.1968    Z=             -0.3372  Tot=              0.5462
 Quadrupole moment (field-independent basis, Debye-Ang):
   XX=            -15.9821   YY=            -22.7850   ZZ=            -26.0691
   XY=              1.8698   XZ=              0.2451   YZ=              0.5660

 Normal termination of Gaussian 09 at Fri Apr 12 17:37:03 2019.
