 Gaussian 09, Revision D.01,
 Gaussian 09:  AS64L-G09RevD.01 24-Apr-2013

 --------------------------------------------------------------------
 #p hf 3-21g scf=tight NoSymmetry guess=read opt=(tight,modredundant)
 --------------------------------------------------------------------

 -----------------------------------
 Geometry optimization at the 2D-PES
 -----------------------------------
 Symbolic Z-matrix:
 Charge =  0 Multiplicity = 1

 SCF Done:  E(RHF) =  -226.390870027     A.U. after   13 cycles
 SCF Done:  E(RHF) =  -226.390876746     A.U. after   11 cycles
 SCF Done:  E(RHF) =  -226.390883508     A.U. after   10 cycles
 SCF Done:  E(RHF) =  -226.390883539     A.U. after    9 cycles
 SCF Done:  E(RHF) =  -226.390883543     A.U. after    8 cycles
 Optimization completed.
    -- Stationary point found.

                          Input orientation:
 ---------------------------------------------------------------------
 Center     Atomic      Atomic             Coordinates (Angstroms)
 Number     Number       Type             X           Y           Z
 ---------------------------------------------------------------------
      1          6           0        0.745901    0.590697    0.057688
      2          6           0        1.415447   -0.530240   -0.030966
      3          1           0        1.192292    1.563436    0.074998
      4          1           0        2.485710   -0.520169   -0.046576
      5          1           0        0.914171   -1.474866   -0.065570
      6          8           0       -0.657397    0.702013    0.040906
      7          8           0       -1.256439   -0.383333    0.818537
      8          1           0       -1.011282   -0.141011    1.730575
 ---------------------------------------------------------------------

 Alpha  occ. eigenvalues --  -20.53558 -20.52742 -11.24615 -11.17567  -1.47666
 Alpha  occ. eigenvalues --   -1.23570  -1.03971  -0.80438  -0.69727  -0.69294
 Alpha  occ. eigenvalues --   -0.62915  -0.58758  -0.56322  -0.50235  -0.47628
 Alpha  occ. eigenvalues --   -0.37525
 Alpha virt. eigenvalues --    0.16291   0.25004   0.28450   0.29167   0.32316
 Alpha virt. eigenvalues --    0.36955   0.49628   0.57153   0.87977   0.96542
 Alpha virt. eigenvalues --    0.99453   1.06279   1.09599   1.10914   1.24342

 Mulliken charges:
               1
     1  C    0.102529
     2  C   -0.482375
     3  H    0.254171
     4  H    0.227160
     5  H    0.256402
     6  O   -0.390724
     7  O   -0.372109
     8  H    0.404946
 Sum of Mulliken charges =   0.00000

 Dipole moment (field-independent basis, Debye):
    X=              2.3234    Y=              0.1988    Z=              2.0217  Tot=              3.0862
 Quadrupole moment (field-independent basis, Debye-Ang):
   XX=            -24.2342   YY=            -22.5909   ZZ=            -20.5489
   XY=              0.6631   XZ=             -1.6507   YZ=              0.3977

 Normal termination of Gaussian 09 at Fri Apr 12 17:20:14 2019.
