 Gaussian 09, Revision D.01,
 Gaussian 09:  AS64L-G09RevD.01 24-Apr-2013

 --------------------------------------------------------------------
 #p hf 3-21g scf=tight NoSymmetry guess=read opt=(tight,modredundant)
 --------------------------------------------------------------------

 -----------------------------------
 Geometry optimization at the 2D-PES
 -----------------------------------
 Symbolic Z-matrix:
 Charge =  0 Multiplicity = 1

 SCF Done:  E(RHF) =  -226.392264891     A.U. after   12 cycles
 SCF Done:  E(RHF) =  -226.392281478     A.U. after   12 cycles
 SCF Done:  E(RHF) =  -226.392295838     A.U. after   10 cycles
 SCF Done:  E(RHF) =  -226.392295940     A.U. after    9 cycles
 SCF Done:  E(RHF) =  -226.392295957     A.U. after    8 cycles
 SCF Done:  E(RHF) =  -226.392295959     A.U. after    6 cycles
 Optimization completed.
    -- Stationary point found.

                          Input orientation:
 ---------------------------------------------------------------------
 Center     Atomic      Atomic             Coordinates (Angstroms)
 Number     Number       Type             X           Y           Z
 ---------------------------------------------------------------------
      1          6           0        0.739322    0.581504    0.070155
      2          6           0        1.420034   -0.531009   -0.036128
      3          1           0        1.185882    1.553625    0.089944
      4          1           0        2.489358   -0.503778   -0.066895
      5          1           0        0.950063   -1.492148   -0.041452
      6          8           0       -0.657642    0.704775    0.050559
      7          8           0       -1.274839   -0.386006    0.802079
      8          1           0       -1.541069   -0.987592    0.084765
 ---------------------------------------------------------------------

 Alpha  occ. eigenvalues --  -20.53648 -20.52933 -11.24630 -11.17260  -1.47835
 Alpha  occ. eigenvalues --   -1.23898  -1.03787  -0.79699  -0.70767  -0.68920
 Alpha  occ. eigenvalues --   -0.65421  -0.57100  -0.54349  -0.51584  -0.48401
 Alpha  occ. eigenvalues --   -0.37038
 Alpha virt. eigenvalues --    0.16891   0.23760   0.28819   0.29355   0.33138
 Alpha virt. eigenvalues --    0.37038   0.49860   0.57547   0.88525   0.96617
 Alpha virt. eigenvalues --    0.99209   1.06568   1.09729   1.11919   1.24254

 Mulliken charges:
               1
     1  C    0.147722
     2  C   -0.491523
     3  H    0.257861
     4  H    0.229452
     5  H    0.222997
     6  O   -0.407073
     7  O   -0.370750
     8  H    0.411314
 Sum of Mulliken charges =   0.00000

 Dipole moment (field-independent basis, Debye):
    X=              1.1778    Y=             -1.4149    Z=             -1.2775  Tot=              2.2408
 Quadrupole moment (field-independent basis, Debye-Ang):
   XX=            -21.3861   YY=            -20.5380   ZZ=            -27.0001
   XY=              3.9386   XZ=              1.9447   YZ=              0.8062

 Normal termination of Gaussian 09 at Fri Apr 12 17:15:44 2019.
