 Gaussian 09, Revision D.01,
 Gaussian 09:  AS64L-G09RevD.01 24-Apr-2013

 --------------------------------------------------------------------
 #p hf 3-21g scf=tight NoSymmetry guess=read opt=(tight,modredundant)
 --------------------------------------------------------------------

 -----------------------------------
 Geometry optimization at the 2D-PES
 -----------------------------------
 Symbolic Z-matrix:
 Charge =  0 Multiplicity = 1

 SCF Done:  E(RHF) =  -226.381354820     A.U. after   13 cycles
 SCF Done:  E(RHF) =  -226.381362035     A.U. after   11 cycles
 SCF Done:  E(RHF) =  -226.381363344     A.U. after    9 cycles
 SCF Done:  E(RHF) =  -226.381363462     A.U. after    9 cycles
 SCF Done:  E(RHF) =  -226.381363471     A.U. after    7 cycles
 Optimization completed.
    -- Stationary point found.

                          Input orientation:
 ---------------------------------------------------------------------
 Center     Atomic      Atomic             Coordinates (Angstroms)
 Number     Number       Type             X           Y           Z
 ---------------------------------------------------------------------
      1          6           0        0.738577    0.609433    0.028011
      2          6           0        1.410406   -0.517043    0.003682
      3          1           0        1.197220    1.574249    0.084494
      4          1           0        2.480413   -0.511046    0.027063
      5          1           0        0.921025   -1.471907   -0.009685
      6          8           0       -0.665906    0.680024    0.007425
      7          8           0       -1.228488    0.061130   -1.207725
      8          1           0       -0.514790   -0.520102   -1.528884
 ---------------------------------------------------------------------

 Alpha  occ. eigenvalues --  -20.53170 -20.52390 -11.25855 -11.19436  -1.46956
 Alpha  occ. eigenvalues --   -1.23782  -1.05443  -0.81111  -0.72774  -0.67551
 Alpha  occ. eigenvalues --   -0.61875  -0.59772  -0.55753  -0.53099  -0.45984
 Alpha  occ. eigenvalues --   -0.38922
 Alpha virt. eigenvalues --    0.14160   0.24067   0.27697   0.29204   0.31401
 Alpha virt. eigenvalues --    0.36552   0.50029   0.55386   0.87370   0.95668
 Alpha virt. eigenvalues --    0.99829   1.04699   1.08069   1.11109   1.23292

 Mulliken charges:
               1
     1  C    0.111759
     2  C   -0.498173
     3  H    0.258291
     4  H    0.240853
     5  H    0.239921
     6  O   -0.387576
     7  O   -0.367163
     8  H    0.402088
 Sum of Mulliken charges =   0.00000

 Dipole moment (field-independent basis, Debye):
    X=              3.4299    Y=             -1.2986    Z=             -0.7458  Tot=              3.7426
 Quadrupole moment (field-independent basis, Debye-Ang):
   XX=            -25.3486   YY=            -21.5351   ZZ=            -23.7668
   XY=              2.0331   XZ=             -1.1441   YZ=              1.9106

 Normal termination of Gaussian 09 at Fri Apr 12 14:58:29 2019.
