 Gaussian 09, Revision D.01,
 Gaussian 09:  AS64L-G09RevD.01 24-Apr-2013

 --------------------------------------------------------------------
 #p hf 3-21g scf=tight NoSymmetry guess=read opt=(tight,modredundant)
 --------------------------------------------------------------------

 -----------------------------------
 Geometry optimization at the 2D-PES
 -----------------------------------
 Symbolic Z-matrix:
 Charge =  0 Multiplicity = 1

 SCF Done:  E(RHF) =  -226.393874269     A.U. after   13 cycles
 SCF Done:  E(RHF) =  -226.393875045     A.U. after   11 cycles
 SCF Done:  E(RHF) =  -226.393875400     A.U. after   10 cycles
 SCF Done:  E(RHF) =  -226.393875414     A.U. after    7 cycles
 SCF Done:  E(RHF) =  -226.393875415     A.U. after    6 cycles
 Optimization completed.
    -- Stationary point found.

                          Input orientation:
 ---------------------------------------------------------------------
 Center     Atomic      Atomic             Coordinates (Angstroms)
 Number     Number       Type             X           Y           Z
 ---------------------------------------------------------------------
      1          6           0        0.724704    0.628684    0.045687
      2          6           0        1.368123   -0.509498    0.003998
      3          1           0        1.189741    1.587611    0.130197
      4          1           0        2.438644   -0.533745    0.007686
      5          1           0        0.840924   -1.439820   -0.054180
      6          8           0       -0.678656    0.667082   -0.027417
      7          8           0       -1.134501    1.074210    1.318452
      8          1           0       -2.052108    0.756752    1.269203
 ---------------------------------------------------------------------

 Alpha  occ. eigenvalues --  -20.52417 -20.51545 -11.23740 -11.17584  -1.46156
 Alpha  occ. eigenvalues --   -1.23106  -1.03048  -0.79273  -0.69414  -0.68009
 Alpha  occ. eigenvalues --   -0.63532  -0.58477  -0.55763  -0.50356  -0.44313
 Alpha  occ. eigenvalues --   -0.38155
 Alpha virt. eigenvalues --    0.15955   0.27252   0.28870   0.31155   0.32030
 Alpha virt. eigenvalues --    0.36271   0.49473   0.56930   0.89259   0.97478
 Alpha virt. eigenvalues --    0.99131   1.07133   1.10329   1.12436   1.23703

 Mulliken charges:
               1
     1  C    0.151029
     2  C   -0.463019
     3  H    0.241581
     4  H    0.227544
     5  H    0.241320
     6  O   -0.419925
     7  O   -0.394830
     8  H    0.416300
 Sum of Mulliken charges =   0.00000

 Dipole moment (field-independent basis, Debye):
    X=              0.0726    Y=             -0.8008    Z=              0.1902  Tot=              0.8263
 Quadrupole moment (field-independent basis, Debye-Ang):
   XX=            -16.4124   YY=            -23.3635   ZZ=            -25.9181
   XY=              0.5319   XZ=             -2.5696   YZ=             -0.5816

 Normal termination of Gaussian 09 at Fri Apr 12 16:25:47 2019.
