 Gaussian 09, Revision D.01,
 Gaussian 09:  AS64L-G09RevD.01 24-Apr-2013

 --------------------------------------------------------------------
 #p hf 3-21g scf=tight NoSymmetry guess=read opt=(tight,modredundant)
 --------------------------------------------------------------------

 -----------------------------------
 Geometry optimization at the 2D-PES
 -----------------------------------
 Symbolic Z-matrix:
 Charge =  0 Multiplicity = 1

 SCF Done:  E(RHF) =  -226.392402422     A.U. after   12 cycles
 SCF Done:  E(RHF) =  -226.392414163     A.U. after   12 cycles
 SCF Done:  E(RHF) =  -226.392423800     A.U. after   11 cycles
 SCF Done:  E(RHF) =  -226.392423912     A.U. after    9 cycles
 SCF Done:  E(RHF) =  -226.392423924     A.U. after    8 cycles
 SCF Done:  E(RHF) =  -226.392423925     A.U. after    7 cycles
 Optimization completed.
    -- Stationary point found.

                          Input orientation:
 ---------------------------------------------------------------------
 Center     Atomic      Atomic             Coordinates (Angstroms)
 Number     Number       Type             X           Y           Z
 ---------------------------------------------------------------------
      1          6           0        0.744005    0.582429    0.053396
      2          6           0        1.421249   -0.534294   -0.034087
      3          1           0        1.182984    1.558235    0.077337
      4          1           0        2.491172   -0.514174   -0.046554
      5          1           0        0.928950   -1.482428   -0.081805
      6          8           0       -0.654992    0.701538    0.044353
      7          8           0       -1.270032   -0.492100    0.619832
      8          1           0       -1.033498   -0.409756    1.562518
 ---------------------------------------------------------------------

 Alpha  occ. eigenvalues --  -20.53949 -20.53015 -11.24841 -11.17329  -1.48104
 Alpha  occ. eigenvalues --   -1.23861  -1.04013  -0.80482  -0.70018  -0.69440
 Alpha  occ. eigenvalues --   -0.63645  -0.58133  -0.56185  -0.50908  -0.48126
 Alpha  occ. eigenvalues --   -0.37264
 Alpha virt. eigenvalues --    0.17106   0.24162   0.28391   0.29129   0.32529
 Alpha virt. eigenvalues --    0.36961   0.49551   0.57542   0.88060   0.96512
 Alpha virt. eigenvalues --    0.99721   1.06245   1.09558   1.10951   1.24434

 Mulliken charges:
               1
     1  C    0.112296
     2  C   -0.497246
     3  H    0.258559
     4  H    0.226922
     5  H    0.253866
     6  O   -0.390811
     7  O   -0.370021
     8  H    0.406434
 Sum of Mulliken charges =   0.00000

 Dipole moment (field-independent basis, Debye):
    X=              2.2136    Y=             -0.0556    Z=              2.0472  Tot=              3.0156
 Quadrupole moment (field-independent basis, Debye-Ang):
   XX=            -24.2869   YY=            -22.4857   ZZ=            -21.1461
   XY=              1.0705   XZ=             -1.8618   YZ=             -0.5045

 Normal termination of Gaussian 09 at Fri Apr 12 17:24:53 2019.
