 Gaussian 09, Revision D.01,
 Gaussian 09:  AS64L-G09RevD.01 24-Apr-2013

 --------------------------------------------------------------------
 #p hf 3-21g scf=tight NoSymmetry guess=read opt=(tight,modredundant)
 --------------------------------------------------------------------

 -----------------------------------
 Geometry optimization at the 2D-PES
 -----------------------------------
 Symbolic Z-matrix:
 Charge =  0 Multiplicity = 1

 SCF Done:  E(RHF) =  -226.393652079     A.U. after   13 cycles
 SCF Done:  E(RHF) =  -226.393658045     A.U. after   11 cycles
 SCF Done:  E(RHF) =  -226.393663098     A.U. after   10 cycles
 SCF Done:  E(RHF) =  -226.393663113     A.U. after    8 cycles
 SCF Done:  E(RHF) =  -226.393663118     A.U. after    7 cycles
 Optimization completed.
    -- Stationary point found.

                          Input orientation:
 ---------------------------------------------------------------------
 Center     Atomic      Atomic             Coordinates (Angstroms)
 Number     Number       Type             X           Y           Z
 ---------------------------------------------------------------------
      1          6           0        0.728349    0.638341    0.024415
      2          6           0        1.371294   -0.500949   -0.023095
      3          1           0        1.185624    1.602949    0.067970
      4          1           0        2.440819   -0.526033    0.018498
      5          1           0        0.845167   -1.432589   -0.075749
      6          8           0       -0.678810    0.663702    0.054099
      7          8           0       -1.099739    1.607810   -0.987768
      8          1           0       -1.181090    1.018697   -1.759400
 ---------------------------------------------------------------------

 Alpha  occ. eigenvalues --  -20.53421 -20.52454 -11.24458 -11.17924  -1.47521
 Alpha  occ. eigenvalues --   -1.23607  -1.03668  -0.80049  -0.72259  -0.65690
 Alpha  occ. eigenvalues --   -0.63565  -0.60673  -0.55735  -0.48830  -0.47741
 Alpha  occ. eigenvalues --   -0.38235
 Alpha virt. eigenvalues --    0.16426   0.25248   0.27617   0.30978   0.32515
 Alpha virt. eigenvalues --    0.35722   0.48955   0.56580   0.89128   0.96452
 Alpha virt. eigenvalues --    0.98980   1.06271   1.09933   1.11236   1.23767

 Mulliken charges:
               1
     1  C    0.128511
     2  C   -0.482950
     3  H    0.253137
     4  H    0.230575
     5  H    0.241952
     6  O   -0.395681
     7  O   -0.382766
     8  H    0.407223
 Sum of Mulliken charges =   0.00000

 Dipole moment (field-independent basis, Debye):
    X=              1.7449    Y=             -1.1442    Z=             -1.7538  Tot=              2.7257
 Quadrupole moment (field-independent basis, Debye-Ang):
   XX=            -22.7197   YY=            -25.1648   ZZ=            -21.0102
   XY=              2.4434   XZ=              2.5348   YZ=             -0.2823

 Normal termination of Gaussian 09 at Fri Apr 12 15:20:17 2019.
