 Gaussian 09, Revision D.01,
 Gaussian 09:  AS64L-G09RevD.01 24-Apr-2013

 --------------------------------------------------------------------
 #p hf 3-21g scf=tight NoSymmetry guess=read opt=(tight,modredundant)
 --------------------------------------------------------------------

 -----------------------------------
 Geometry optimization at the 2D-PES
 -----------------------------------
 Symbolic Z-matrix:
 Charge =  0 Multiplicity = 1

 SCF Done:  E(RHF) =  -226.383603851     A.U. after   12 cycles
 SCF Done:  E(RHF) =  -226.383612114     A.U. after   12 cycles
 SCF Done:  E(RHF) =  -226.383620430     A.U. after   11 cycles
 SCF Done:  E(RHF) =  -226.383620469     A.U. after    9 cycles
 SCF Done:  E(RHF) =  -226.383620471     A.U. after    6 cycles
 Optimization completed.
    -- Stationary point found.

                          Input orientation:
 ---------------------------------------------------------------------
 Center     Atomic      Atomic             Coordinates (Angstroms)
 Number     Number       Type             X           Y           Z
 ---------------------------------------------------------------------
      1          6           0        0.752041    0.623589    0.048822
      2          6           0        1.385555   -0.519552   -0.000629
      3          1           0        1.239555    1.578714    0.088683
      4          1           0        2.455755   -0.555857   -0.018965
      5          1           0        0.843616   -1.442150   -0.041826
      6          8           0       -0.654445    0.681714   -0.013595
      7          8           0       -1.189822    1.085638    1.300323
      8          1           0       -0.570566    1.773547    1.608928
 ---------------------------------------------------------------------

 Alpha  occ. eigenvalues --  -20.53068 -20.52104 -11.24803 -11.18933  -1.46694
 Alpha  occ. eigenvalues --   -1.23482  -1.04333  -0.81379  -0.70464  -0.68552
 Alpha  occ. eigenvalues --   -0.61500  -0.58345  -0.57393  -0.50864  -0.45527
 Alpha  occ. eigenvalues --   -0.39052
 Alpha virt. eigenvalues --    0.14397   0.26096   0.26658   0.30143   0.32388
 Alpha virt. eigenvalues --    0.35384   0.49547   0.55736   0.87901   0.96150
 Alpha virt. eigenvalues --    0.98789   1.06128   1.09535   1.10559   1.24885

 Mulliken charges:
               1
     1  C    0.086297
     2  C   -0.446461
     3  H    0.226914
     4  H    0.231434
     5  H    0.258778
     6  O   -0.379100
     7  O   -0.373074
     8  H    0.395212
 Sum of Mulliken charges =   0.00000

 Dipole moment (field-independent basis, Debye):
    X=              3.3077    Y=              0.9729    Z=              0.7843  Tot=              3.5359
 Quadrupole moment (field-independent basis, Debye-Ang):
   XX=            -25.0072   YY=            -18.0659   ZZ=            -23.8138
   XY=              1.4999   XZ=              1.1752   YZ=              3.3526

 Normal termination of Gaussian 09 at Fri Apr 12 16:21:06 2019.
