 Gaussian 09, Revision D.01,
 Gaussian 09:  AS64L-G09RevD.01 24-Apr-2013

 --------------------------------------------------------------------
 #p hf 3-21g scf=tight NoSymmetry guess=read opt=(tight,modredundant)
 --------------------------------------------------------------------

 -----------------------------------
 Geometry optimization at the 2D-PES
 -----------------------------------
 Symbolic Z-matrix:
 Charge =  0 Multiplicity = 1

 SCF Done:  E(RHF) =  -226.395771087     A.U. after   13 cycles
 SCF Done:  E(RHF) =  -226.395774639     A.U. after   11 cycles
 SCF Done:  E(RHF) =  -226.395778070     A.U. after   10 cycles
 SCF Done:  E(RHF) =  -226.395778119     A.U. after    8 cycles
 SCF Done:  E(RHF) =  -226.395778123     A.U. after    7 cycles
 Optimization completed.
    -- Stationary point found.

                          Input orientation:
 ---------------------------------------------------------------------
 Center     Atomic      Atomic             Coordinates (Angstroms)
 Number     Number       Type             X           Y           Z
 ---------------------------------------------------------------------
      1          6           0        0.721353    0.635067    0.031548
      2          6           0        1.367428   -0.503056   -0.013821
      3          1           0        1.176328    1.599376    0.089235
      4          1           0        2.437045   -0.515936    0.015444
      5          1           0        0.851819   -1.439736   -0.072961
      6          8           0       -0.677280    0.669358    0.035414
      7          8           0       -1.057394    2.072845   -0.153846
      8          1           0       -1.903365    1.949422   -0.615357
 ---------------------------------------------------------------------

 Alpha  occ. eigenvalues --  -20.53644 -20.52805 -11.24299 -11.16207  -1.47811
 Alpha  occ. eigenvalues --   -1.24125  -1.02594  -0.79829  -0.70890  -0.66946
 Alpha  occ. eigenvalues --   -0.63808  -0.59954  -0.55259  -0.50350  -0.48706
 Alpha  occ. eigenvalues --   -0.35641
 Alpha virt. eigenvalues --    0.19523   0.22633   0.27582   0.32164   0.34162
 Alpha virt. eigenvalues --    0.36026   0.50118   0.57824   0.90408   0.97301
 Alpha virt. eigenvalues --    1.00309   1.06941   1.11017   1.12635   1.22509

 Mulliken charges:
               1
     1  C    0.170043
     2  C   -0.512579
     3  H    0.265295
     4  H    0.225905
     5  H    0.235786
     6  O   -0.419539
     7  O   -0.387820
     8  H    0.422910
 Sum of Mulliken charges =   0.00000

 Dipole moment (field-independent basis, Debye):
    X=             -0.1096    Y=              0.2447    Z=             -1.0306  Tot=              1.0649
 Quadrupole moment (field-independent basis, Debye-Ang):
   XX=            -17.5899   YY=            -22.5941   ZZ=            -24.9664
   XY=             -2.0402   XZ=              2.5857   YZ=             -1.8185

 Normal termination of Gaussian 09 at Fri Apr 12 15:37:14 2019.
