 Gaussian 09, Revision D.01,
 Gaussian 09:  AS64L-G09RevD.01 24-Apr-2013

 --------------------------------------------------------------------
 #p hf 3-21g scf=tight NoSymmetry guess=read opt=(tight,modredundant)
 --------------------------------------------------------------------

 -----------------------------------
 Geometry optimization at the 2D-PES
 -----------------------------------
 Symbolic Z-matrix:
 Charge =  0 Multiplicity = 1

 SCF Done:  E(RHF) =  -226.381452436     A.U. after   14 cycles
 SCF Done:  E(RHF) =  -226.381464073     A.U. after   13 cycles
 SCF Done:  E(RHF) =  -226.381613250     A.U. after   12 cycles
 SCF Done:  E(RHF) =  -226.381615422     A.U. after   11 cycles
 SCF Done:  E(RHF) =  -226.381615963     A.U. after    9 cycles
 SCF Done:  E(RHF) =  -226.381615979     A.U. after    7 cycles
 SCF Done:  E(RHF) =  -226.381615980     A.U. after    6 cycles
 Optimization completed.
    -- Stationary point found.

                          Input orientation:
 ---------------------------------------------------------------------
 Center     Atomic      Atomic             Coordinates (Angstroms)
 Number     Number       Type             X           Y           Z
 ---------------------------------------------------------------------
      1          6           0        0.753201    0.553147    0.026752
      2          6           0        1.482876   -0.533602   -0.058790
      3          1           0        1.178319    1.533632    0.077313
      4          1           0        2.548659   -0.444594   -0.068875
      5          1           0        1.098235   -1.529897   -0.141662
      6          8           0       -0.627359    0.693068    0.061295
      7          8           0       -1.390337   -0.543368    0.222008
      8          1           0       -0.730148   -1.253795    0.274859
 ---------------------------------------------------------------------

 Alpha  occ. eigenvalues --  -20.54917 -20.53389 -11.26720 -11.18378  -1.48697
 Alpha  occ. eigenvalues --   -1.25275  -1.05507  -0.81633  -0.73688  -0.68269
 Alpha  occ. eigenvalues --   -0.64447  -0.58765  -0.54747  -0.54160  -0.49311
 Alpha  occ. eigenvalues --   -0.37313
 Alpha virt. eigenvalues --    0.17887   0.20777   0.26598   0.27273   0.35994
 Alpha virt. eigenvalues --    0.37046   0.49337   0.60932   0.87962   0.95140
 Alpha virt. eigenvalues --    1.01561   1.05307   1.07620   1.10702   1.23774

 Mulliken charges:
               1
     1  C    0.151025
     2  C   -0.541520
     3  H    0.275501
     4  H    0.243497
     5  H    0.206681
     6  O   -0.390024
     7  O   -0.362928
     8  H    0.417767
 Sum of Mulliken charges =   0.00000

 Dipole moment (field-independent basis, Debye):
    X=              2.9241    Y=             -1.3370    Z=              0.1117  Tot=              3.2172
 Quadrupole moment (field-independent basis, Debye-Ang):
   XX=            -25.8257   YY=            -19.5333   ZZ=            -25.8114
   XY=              2.1661   XZ=              0.2412   YZ=             -0.2588

 Normal termination of Gaussian 09 at Fri Apr 12 17:43:34 2019.
