 Gaussian 09, Revision D.01,
 Gaussian 09:  AS64L-G09RevD.01 24-Apr-2013

 --------------------------------------------------------------------
 #p hf 3-21g scf=tight NoSymmetry guess=read opt=(tight,modredundant)
 --------------------------------------------------------------------

 -----------------------------------
 Geometry optimization at the 2D-PES
 -----------------------------------
 Symbolic Z-matrix:
 Charge =  0 Multiplicity = 1

 SCF Done:  E(RHF) =  -226.392014887     A.U. after   13 cycles
 SCF Done:  E(RHF) =  -226.392024544     A.U. after   11 cycles
 SCF Done:  E(RHF) =  -226.392029281     A.U. after   10 cycles
 SCF Done:  E(RHF) =  -226.392029357     A.U. after    9 cycles
 SCF Done:  E(RHF) =  -226.392029368     A.U. after    6 cycles
 Optimization completed.
    -- Stationary point found.

                          Input orientation:
 ---------------------------------------------------------------------
 Center     Atomic      Atomic             Coordinates (Angstroms)
 Number     Number       Type             X           Y           Z
 ---------------------------------------------------------------------
      1          6           0        0.732293    0.626632    0.042886
      2          6           0        1.374945   -0.510982   -0.000358
      3          1           0        1.204189    1.584473    0.120720
      4          1           0        2.445512   -0.538293    0.006664
      5          1           0        0.842809   -1.438506   -0.055883
      6          8           0       -0.676347    0.668396   -0.021299
      7          8           0       -1.159462    0.835450    1.359709
      8          1           0       -1.497271    1.747617    1.326383
 ---------------------------------------------------------------------

 Alpha  occ. eigenvalues --  -20.52571 -20.51808 -11.23796 -11.17802  -1.46471
 Alpha  occ. eigenvalues --   -1.23023  -1.03276  -0.79663  -0.69747  -0.67746
 Alpha  occ. eigenvalues --   -0.64362  -0.57648  -0.55704  -0.48836  -0.45952
 Alpha  occ. eigenvalues --   -0.38449
 Alpha virt. eigenvalues --    0.15611   0.26585   0.28569   0.31051   0.32366
 Alpha virt. eigenvalues --    0.36041   0.49190   0.56634   0.88679   0.97361
 Alpha virt. eigenvalues --    0.98492   1.06888   1.10199   1.12392   1.23715

 Mulliken charges:
               1
     1  C    0.129252
     2  C   -0.450854
     3  H    0.226427
     4  H    0.226744
     5  H    0.252214
     6  O   -0.404876
     7  O   -0.385203
     8  H    0.406297
 Sum of Mulliken charges =   0.00000

 Dipole moment (field-independent basis, Debye):
    X=              1.3394    Y=              1.6173    Z=              0.2106  Tot=              2.1105
 Quadrupole moment (field-independent basis, Debye-Ang):
   XX=            -21.0459   YY=            -16.9721   ZZ=            -25.8635
   XY=             -2.6471   XZ=             -0.9706   YZ=              2.9556

 Normal termination of Gaussian 09 at Fri Apr 12 16:31:29 2019.
