 Gaussian 09, Revision D.01,
 Gaussian 09:  AS64L-G09RevD.01 24-Apr-2013

 --------------------------------------------------------------------
 #p hf 3-21g scf=tight NoSymmetry guess=read opt=(tight,modredundant)
 --------------------------------------------------------------------

 -----------------------------------
 Geometry optimization at the 2D-PES
 -----------------------------------
 Symbolic Z-matrix:
 Charge =  0 Multiplicity = 1

 SCF Done:  E(RHF) =  -226.391317972     A.U. after   12 cycles
 SCF Done:  E(RHF) =  -226.391323530     A.U. after   11 cycles
 SCF Done:  E(RHF) =  -226.391327905     A.U. after   10 cycles
 SCF Done:  E(RHF) =  -226.391327946     A.U. after    8 cycles
 SCF Done:  E(RHF) =  -226.391327954     A.U. after    8 cycles
 SCF Done:  E(RHF) =  -226.391327955     A.U. after    6 cycles
 Optimization completed.
    -- Stationary point found.

                          Input orientation:
 ---------------------------------------------------------------------
 Center     Atomic      Atomic             Coordinates (Angstroms)
 Number     Number       Type             X           Y           Z
 ---------------------------------------------------------------------
      1          6           0        0.721503    0.629860    0.031579
      2          6           0        1.371782   -0.504992   -0.022586
      3          1           0        1.183356    1.593431    0.052703
      4          1           0        2.442336   -0.524510   -0.009360
      5          1           0        0.853096   -1.442668   -0.048566
      6          8           0       -0.690470    0.658248    0.048260
      7          8           0       -1.118965    0.968949   -1.325020
      8          1           0       -1.194506    0.074946   -1.703805
 ---------------------------------------------------------------------

 Alpha  occ. eigenvalues --  -20.52891 -20.52091 -11.24434 -11.18546  -1.46909
 Alpha  occ. eigenvalues --   -1.23186  -1.04057  -0.79953  -0.71948  -0.65605
 Alpha  occ. eigenvalues --   -0.64277  -0.59944  -0.56063  -0.48009  -0.46778
 Alpha  occ. eigenvalues --   -0.39325
 Alpha virt. eigenvalues --    0.15244   0.25465   0.28282   0.30814   0.31639
 Alpha virt. eigenvalues --    0.35932   0.48995   0.56018   0.88346   0.96483
 Alpha virt. eigenvalues --    0.97969   1.06337   1.09319   1.11467   1.24509

 Mulliken charges:
               1
     1  C    0.126879
     2  C   -0.468785
     3  H    0.246590
     4  H    0.233053
     5  H    0.237071
     6  O   -0.397604
     7  O   -0.381121
     8  H    0.403917
 Sum of Mulliken charges =   0.00000

 Dipole moment (field-independent basis, Debye):
    X=              1.8810    Y=             -1.9195    Z=             -0.9744  Tot=              2.8587
 Quadrupole moment (field-independent basis, Debye-Ang):
   XX=            -22.6441   YY=            -23.8625   ZZ=            -23.1943
   XY=              3.3654   XZ=              1.4755   YZ=              2.5427

 Normal termination of Gaussian 09 at Fri Apr 12 15:07:27 2019.
