 Gaussian 09, Revision D.01,
 Gaussian 09:  AS64L-G09RevD.01 24-Apr-2013

 --------------------------------------------------------------------
 #p hf 3-21g scf=tight NoSymmetry guess=read opt=(tight,modredundant)
 --------------------------------------------------------------------

 -----------------------------------
 Geometry optimization at the 2D-PES
 -----------------------------------
 Symbolic Z-matrix:
 Charge =  0 Multiplicity = 1

 SCF Done:  E(RHF) =  -226.392677002     A.U. after   13 cycles
 SCF Done:  E(RHF) =  -226.392683465     A.U. after   11 cycles
 SCF Done:  E(RHF) =  -226.392687669     A.U. after   10 cycles
 SCF Done:  E(RHF) =  -226.392687722     A.U. after    8 cycles
 SCF Done:  E(RHF) =  -226.392687727     A.U. after    7 cycles
 Optimization completed.
    -- Stationary point found.

                          Input orientation:
 ---------------------------------------------------------------------
 Center     Atomic      Atomic             Coordinates (Angstroms)
 Number     Number       Type             X           Y           Z
 ---------------------------------------------------------------------
      1          6           0        0.736553    0.596283    0.060099
      2          6           0        1.399189   -0.527794   -0.025125
      3          1           0        1.195139    1.563430    0.089088
      4          1           0        2.469856   -0.524297   -0.033107
      5          1           0        0.895354   -1.471479   -0.053715
      6          8           0       -0.665037    0.701555    0.027923
      7          8           0       -1.232938   -0.250124    0.992859
      8          1           0       -1.837308    0.343075    1.470922
 ---------------------------------------------------------------------

 Alpha  occ. eigenvalues --  -20.52739 -20.52059 -11.23776 -11.16832  -1.46705
 Alpha  occ. eigenvalues --   -1.23208  -1.02989  -0.79205  -0.70796  -0.65725
 Alpha  occ. eigenvalues --   -0.63065  -0.61264  -0.54772  -0.49262  -0.46347
 Alpha  occ. eigenvalues --   -0.36972
 Alpha virt. eigenvalues --    0.16716   0.25477   0.29264   0.30467   0.32881
 Alpha virt. eigenvalues --    0.37137   0.50126   0.57571   0.88838   0.97327
 Alpha virt. eigenvalues --    0.99728   1.07003   1.10536   1.12928   1.23184

 Mulliken charges:
               1
     1  C    0.133809
     2  C   -0.469107
     3  H    0.244329
     4  H    0.222899
     5  H    0.253459
     6  O   -0.416542
     7  O   -0.384801
     8  H    0.415953
 Sum of Mulliken charges =   0.00000

 Dipole moment (field-independent basis, Debye):
    X=              0.5968    Y=              0.8943    Z=              1.2844  Tot=              1.6750
 Quadrupole moment (field-independent basis, Debye-Ang):
   XX=            -18.9248   YY=            -22.1995   ZZ=            -22.9881
   XY=             -0.7771   XZ=             -3.4346   YZ=              1.9717

 Normal termination of Gaussian 09 at Fri Apr 12 17:09:10 2019.
