 Gaussian 09, Revision D.01,
 Gaussian 09:  AS64L-G09RevD.01 24-Apr-2013

 --------------------------------------------------------------------
 #p hf 3-21g scf=tight NoSymmetry guess=read opt=(tight,modredundant)
 --------------------------------------------------------------------

 -----------------------------------
 Geometry optimization at the 2D-PES
 -----------------------------------
 Symbolic Z-matrix:
 Charge =  0 Multiplicity = 1

 SCF Done:  E(RHF) =  -226.377960453     A.U. after   13 cycles
 SCF Done:  E(RHF) =  -226.378028992     A.U. after   12 cycles
 SCF Done:  E(RHF) =  -226.378037982     A.U. after   11 cycles
 SCF Done:  E(RHF) =  -226.378038646     A.U. after   10 cycles
 SCF Done:  E(RHF) =  -226.378038692     A.U. after    8 cycles
 SCF Done:  E(RHF) =  -226.378038700     A.U. after    7 cycles
 Optimization completed.
    -- Stationary point found.

                          Input orientation:
 ---------------------------------------------------------------------
 Center     Atomic      Atomic             Coordinates (Angstroms)
 Number     Number       Type             X           Y           Z
 ---------------------------------------------------------------------
      1          6           0        0.768438    0.630229    0.025745
      2          6           0        1.386262   -0.522953   -0.003933
      3          1           0        1.283165    1.567612    0.111506
      4          1           0        2.454258   -0.566917    0.045659
      5          1           0        0.841323   -1.441700   -0.074297
      6          8           0       -0.629939    0.698238    0.021472
      7          8           0       -1.137347    2.060535   -0.177085
      8          1           0       -0.347548    2.624223   -0.263349
 ---------------------------------------------------------------------

 Alpha  occ. eigenvalues --  -20.54189 -20.53304 -11.26053 -11.17702  -1.48016
 Alpha  occ. eigenvalues --   -1.24776  -1.04232  -0.82261  -0.72018  -0.67005
 Alpha  occ. eigenvalues --   -0.63894  -0.58901  -0.55387  -0.52869  -0.49196
 Alpha  occ. eigenvalues --   -0.36528
 Alpha virt. eigenvalues --    0.17669   0.22004   0.23330   0.30949   0.34100
 Alpha virt. eigenvalues --    0.35870   0.51731   0.56312   0.88755   0.95756
 Alpha virt. eigenvalues --    0.99190   1.05481   1.09828   1.11235   1.22815

 Mulliken charges:
               1
     1  C    0.126587
     2  C   -0.491528
     3  H    0.225787
     4  H    0.230995
     5  H    0.251253
     6  O   -0.382623
     7  O   -0.360035
     8  H    0.399563
 Sum of Mulliken charges =   0.00000

 Dipole moment (field-independent basis, Debye):
    X=              3.3616    Y=              1.2539    Z=             -0.1710  Tot=              3.5919
 Quadrupole moment (field-independent basis, Debye-Ang):
   XX=            -25.3306   YY=            -16.2617   ZZ=            -25.7418
   XY=              4.0633   XZ=              0.0158   YZ=             -0.5259

 Normal termination of Gaussian 09 at Fri Apr 12 15:33:34 2019.
