 Gaussian 09, Revision D.01,
 Gaussian 09:  AS64L-G09RevD.01 24-Apr-2013

 --------------------------------------------------------------------
 #p hf 3-21g scf=tight NoSymmetry guess=read opt=(tight,modredundant)
 --------------------------------------------------------------------

 -----------------------------------
 Geometry optimization at the 2D-PES
 -----------------------------------
 Symbolic Z-matrix:
 Charge =  0 Multiplicity = 1

 SCF Done:  E(RHF) =  -226.395729845     A.U. after   13 cycles
 SCF Done:  E(RHF) =  -226.395735349     A.U. after   11 cycles
 SCF Done:  E(RHF) =  -226.395738755     A.U. after   10 cycles
 SCF Done:  E(RHF) =  -226.395738813     A.U. after    8 cycles
 SCF Done:  E(RHF) =  -226.395738814     A.U. after    6 cycles
 Optimization completed.
    -- Stationary point found.

                          Input orientation:
 ---------------------------------------------------------------------
 Center     Atomic      Atomic             Coordinates (Angstroms)
 Number     Number       Type             X           Y           Z
 ---------------------------------------------------------------------
      1          6           0        0.731459    0.636227    0.054329
      2          6           0        1.369631   -0.504845    0.001454
      3          1           0        1.194116    1.597183    0.120216
      4          1           0        2.439485   -0.529600   -0.021154
      5          1           0        0.838927   -1.434037   -0.034047
      6          8           0       -0.668466    0.674431   -0.016754
      7          8           0       -1.102552    1.693218    0.947297
      8          1           0       -1.698583    2.214570    0.383415
 ---------------------------------------------------------------------

 Alpha  occ. eigenvalues --  -20.53335 -20.52421 -11.24106 -11.16904  -1.47404
 Alpha  occ. eigenvalues --   -1.23762  -1.02863  -0.79641  -0.69822  -0.68542
 Alpha  occ. eigenvalues --   -0.65100  -0.56367  -0.54833  -0.52153  -0.47316
 Alpha  occ. eigenvalues --   -0.36633
 Alpha virt. eigenvalues --    0.17480   0.25031   0.28087   0.31856   0.32929
 Alpha virt. eigenvalues --    0.35937   0.49455   0.57352   0.90009   0.97174
 Alpha virt. eigenvalues --    1.00094   1.06800   1.10838   1.12783   1.22343

 Mulliken charges:
               1
     1  C    0.159281
     2  C   -0.489374
     3  H    0.244598
     4  H    0.226181
     5  H    0.243874
     6  O   -0.412892
     7  O   -0.386675
     8  H    0.415008
 Sum of Mulliken charges =   0.00000

 Dipole moment (field-independent basis, Debye):
    X=              0.5763    Y=              1.2630    Z=             -0.9726  Tot=              1.6950
 Quadrupole moment (field-independent basis, Debye-Ang):
   XX=            -19.4326   YY=            -17.3381   ZZ=            -27.3315
   XY=             -3.0582   XZ=              0.8056   YZ=             -1.3254

 Normal termination of Gaussian 09 at Fri Apr 12 16:02:32 2019.
