 Gaussian 09, Revision D.01,
 Gaussian 09:  AS64L-G09RevD.01 24-Apr-2013

 --------------------------------------------------------------------
 #p hf 3-21g scf=tight NoSymmetry guess=read opt=(tight,modredundant)
 --------------------------------------------------------------------

 -----------------------------------
 Geometry optimization at the 2D-PES
 -----------------------------------
 Symbolic Z-matrix:
 Charge =  0 Multiplicity = 1

 SCF Done:  E(RHF) =  -226.394568262     A.U. after   13 cycles
 SCF Done:  E(RHF) =  -226.394574693     A.U. after   11 cycles
 SCF Done:  E(RHF) =  -226.394578306     A.U. after   10 cycles
 SCF Done:  E(RHF) =  -226.394578339     A.U. after    8 cycles
 SCF Done:  E(RHF) =  -226.394578343     A.U. after    7 cycles
 Optimization completed.
    -- Stationary point found.

                          Input orientation:
 ---------------------------------------------------------------------
 Center     Atomic      Atomic             Coordinates (Angstroms)
 Number     Number       Type             X           Y           Z
 ---------------------------------------------------------------------
      1          6           0        0.729274    0.639242    0.020332
      2          6           0        1.369825   -0.501512   -0.023205
      3          1           0        1.187346    1.602906    0.070572
      4          1           0        2.439029   -0.526867    0.023003
      5          1           0        0.843701   -1.432674   -0.081237
      6          8           0       -0.675869    0.669173    0.053736
      7          8           0       -1.091884    1.776515   -0.812466
      8          1           0       -1.334001    1.297992   -1.625011
 ---------------------------------------------------------------------

 Alpha  occ. eigenvalues --  -20.53535 -20.52581 -11.24399 -11.17466  -1.47675
 Alpha  occ. eigenvalues --   -1.23754  -1.03378  -0.79937  -0.72121  -0.65925
 Alpha  occ. eigenvalues --   -0.63507  -0.60670  -0.55560  -0.48878  -0.48326
 Alpha  occ. eigenvalues --   -0.37581
 Alpha virt. eigenvalues --    0.17115   0.24657   0.27659   0.31273   0.32994
 Alpha virt. eigenvalues --    0.35769   0.49178   0.56928   0.89559   0.96573
 Alpha virt. eigenvalues --    0.99446   1.06278   1.10254   1.11706   1.23165

 Mulliken charges:
               1
     1  C    0.138672
     2  C   -0.491195
     3  H    0.255916
     4  H    0.229274
     5  H    0.240563
     6  O   -0.400390
     7  O   -0.383727
     8  H    0.410888
 Sum of Mulliken charges =   0.00000

 Dipole moment (field-independent basis, Debye):
    X=              1.3480    Y=             -0.8218    Z=             -1.8541  Tot=              2.4351
 Quadrupole moment (field-independent basis, Debye-Ang):
   XX=            -21.8858   YY=            -24.9821   ZZ=            -21.2660
   XY=              1.7306   XZ=              3.2255   YZ=             -1.3121

 Normal termination of Gaussian 09 at Fri Apr 12 15:22:36 2019.
