 Gaussian 09, Revision D.01,
 Gaussian 09:  AS64L-G09RevD.01 24-Apr-2013

 --------------------------------------------------------------------
 #p hf 3-21g scf=tight NoSymmetry guess=read opt=(tight,modredundant)
 --------------------------------------------------------------------

 -----------------------------------
 Geometry optimization at the 2D-PES
 -----------------------------------
 Symbolic Z-matrix:
 Charge =  0 Multiplicity = 1

 SCF Done:  E(RHF) =  -226.398429151     A.U. after   13 cycles
 SCF Done:  E(RHF) =  -226.398431428     A.U. after   11 cycles
 SCF Done:  E(RHF) =  -226.398436188     A.U. after   11 cycles
 SCF Done:  E(RHF) =  -226.398436222     A.U. after    8 cycles
 SCF Done:  E(RHF) =  -226.398436226     A.U. after    7 cycles
 Optimization completed.
    -- Stationary point found.

                          Input orientation:
 ---------------------------------------------------------------------
 Center     Atomic      Atomic             Coordinates (Angstroms)
 Number     Number       Type             X           Y           Z
 ---------------------------------------------------------------------
      1          6           0        0.733466    0.572228    0.026955
      2          6           0        1.422996   -0.536382   -0.056666
      3          1           0        1.165092    1.549000    0.103190
      4          1           0        2.492462   -0.495192   -0.056735
      5          1           0        0.949414   -1.490679   -0.123055
      6          8           0       -0.652282    0.711314    0.046465
      7          8           0       -1.272867   -0.609440   -0.043161
      8          1           0       -2.093946   -0.363885   -0.500790
 ---------------------------------------------------------------------

 Alpha  occ. eigenvalues --  -20.53937 -20.52772 -11.24210 -11.15639  -1.47969
 Alpha  occ. eigenvalues --   -1.24121  -1.02723  -0.79149  -0.71732  -0.66032
 Alpha  occ. eigenvalues --   -0.64308  -0.60486  -0.53659  -0.50819  -0.48508
 Alpha  occ. eigenvalues --   -0.35497
 Alpha virt. eigenvalues --    0.20381   0.22750   0.28644   0.30457   0.34275
 Alpha virt. eigenvalues --    0.37435   0.50113   0.59258   0.89361   0.97348
 Alpha virt. eigenvalues --    1.01417   1.07638   1.10742   1.13004   1.23067

 Mulliken charges:
               1
     1  C    0.156692
     2  C   -0.508721
     3  H    0.257726
     4  H    0.218073
     5  H    0.254691
     6  O   -0.420079
     7  O   -0.382213
     8  H    0.423832
 Sum of Mulliken charges =   0.00000

 Dipole moment (field-independent basis, Debye):
    X=             -0.2116    Y=              0.3107    Z=             -1.0223  Tot=              1.0892
 Quadrupole moment (field-independent basis, Debye-Ang):
   XX=            -17.0357   YY=            -22.8884   ZZ=            -25.2205
   XY=              1.6791   XZ=              2.4628   YZ=              0.6046

 Normal termination of Gaussian 09 at Fri Apr 12 17:58:42 2019.
