 Gaussian 09, Revision D.01,
 Gaussian 09:  AS64L-G09RevD.01 24-Apr-2013

 --------------------------------------------------------------------
 #p hf 3-21g scf=tight NoSymmetry guess=read opt=(tight,modredundant)
 --------------------------------------------------------------------

 -----------------------------------
 Geometry optimization at the 2D-PES
 -----------------------------------
 Symbolic Z-matrix:
 Charge =  0 Multiplicity = 1

 SCF Done:  E(RHF) =  -226.395026200     A.U. after   12 cycles
 SCF Done:  E(RHF) =  -226.395026971     A.U. after    9 cycles
 SCF Done:  E(RHF) =  -226.395027101     A.U. after    8 cycles
 SCF Done:  E(RHF) =  -226.395027120     A.U. after    7 cycles
 Optimization completed.
    -- Stationary point found.

                          Input orientation:
 ---------------------------------------------------------------------
 Center     Atomic      Atomic             Coordinates (Angstroms)
 Number     Number       Type             X           Y           Z
 ---------------------------------------------------------------------
      1          6           0        0.732374    0.590180    0.059713
      2          6           0        1.401012   -0.530579   -0.031517
      3          1           0        1.183779    1.560150    0.091381
      4          1           0        2.471341   -0.517614   -0.041650
      5          1           0        0.904926   -1.477452   -0.056335
      6          8           0       -0.661721    0.709264    0.034674
      7          8           0       -1.233250   -0.398676    0.814002
      8          1           0       -2.175663   -0.185470    0.706493
 ---------------------------------------------------------------------

 Alpha  occ. eigenvalues --  -20.52997 -20.52238 -11.23848 -11.16326  -1.46913
 Alpha  occ. eigenvalues --   -1.23530  -1.02771  -0.78858  -0.71219  -0.65486
 Alpha  occ. eigenvalues --   -0.64467  -0.59879  -0.53917  -0.51262  -0.46502
 Alpha  occ. eigenvalues --   -0.36073
 Alpha virt. eigenvalues --    0.17557   0.25280   0.29060   0.30562   0.33351
 Alpha virt. eigenvalues --    0.37331   0.50322   0.58127   0.89239   0.97619
 Alpha virt. eigenvalues --    1.00173   1.07389   1.10709   1.12561   1.23936

 Mulliken charges:
               1
     1  C    0.148231
     2  C   -0.482361
     3  H    0.250857
     4  H    0.221264
     5  H    0.250943
     6  O   -0.423671
     7  O   -0.385536
     8  H    0.420274
 Sum of Mulliken charges =   0.00000

 Dipole moment (field-independent basis, Debye):
    X=             -0.2437    Y=              0.1424    Z=             -0.0045  Tot=              0.2823
 Quadrupole moment (field-independent basis, Debye-Ang):
   XX=            -15.8331   YY=            -22.6313   ZZ=            -26.0713
   XY=              1.3480   XZ=             -1.2183   YZ=              0.6487

 Normal termination of Gaussian 09 at Fri Apr 12 17:17:38 2019.
