 Gaussian 09, Revision D.01,
 Gaussian 09:  AS64L-G09RevD.01 24-Apr-2013

 --------------------------------------------------------------------
 #p hf 3-21g scf=tight NoSymmetry guess=read opt=(tight,modredundant)
 --------------------------------------------------------------------

 -----------------------------------
 Geometry optimization at the 2D-PES
 -----------------------------------
 Symbolic Z-matrix:
 Charge =  0 Multiplicity = 1

 SCF Done:  E(RHF) =  -226.395035336     A.U. after   13 cycles
 SCF Done:  E(RHF) =  -226.395040478     A.U. after   11 cycles
 SCF Done:  E(RHF) =  -226.395042831     A.U. after   10 cycles
 SCF Done:  E(RHF) =  -226.395042887     A.U. after    8 cycles
 SCF Done:  E(RHF) =  -226.395042891     A.U. after    7 cycles
 Optimization completed.
    -- Stationary point found.

                          Input orientation:
 ---------------------------------------------------------------------
 Center     Atomic      Atomic             Coordinates (Angstroms)
 Number     Number       Type             X           Y           Z
 ---------------------------------------------------------------------
      1          6           0        0.722194    0.638124    0.023180
      2          6           0        1.367334   -0.499556   -0.024475
      3          1           0        1.180612    1.602286    0.063654
      4          1           0        2.436782   -0.522151    0.018826
      5          1           0        0.843643   -1.431968   -0.082794
      6          8           0       -0.681497    0.664942    0.058083
      7          8           0       -1.090124    1.613156   -0.991327
      8          1           0       -1.749952    1.071117   -1.456164
 ---------------------------------------------------------------------

 Alpha  occ. eigenvalues --  -20.53072 -20.52096 -11.24124 -11.17347  -1.47014
 Alpha  occ. eigenvalues --   -1.23535  -1.03119  -0.79621  -0.71029  -0.66686
 Alpha  occ. eigenvalues --   -0.62298  -0.61348  -0.55707  -0.49198  -0.46577
 Alpha  occ. eigenvalues --   -0.37607
 Alpha virt. eigenvalues --    0.16953   0.25558   0.28164   0.31383   0.32785
 Alpha virt. eigenvalues --    0.35933   0.49415   0.56994   0.89591   0.97047
 Alpha virt. eigenvalues --    0.99320   1.07042   1.10425   1.12830   1.22197

 Mulliken charges:
               1
     1  C    0.154967
     2  C   -0.484978
     3  H    0.251209
     4  H    0.228045
     5  H    0.238437
     6  O   -0.412481
     7  O   -0.391614
     8  H    0.416415
 Sum of Mulliken charges =   0.00000

 Dipole moment (field-independent basis, Debye):
    X=              0.5087    Y=             -1.0293    Z=             -1.1850  Tot=              1.6500
 Quadrupole moment (field-independent basis, Debye-Ang):
   XX=            -18.9512   YY=            -25.0377   ZZ=            -23.1347
   XY=              1.0938   XZ=              3.6899   YZ=              0.1541

 Normal termination of Gaussian 09 at Fri Apr 12 15:21:22 2019.
