 Gaussian 09, Revision D.01,
 Gaussian 09:  AS64L-G09RevD.01 24-Apr-2013

 --------------------------------------------------------------------
 #p hf 3-21g scf=tight NoSymmetry guess=read opt=(tight,modredundant)
 --------------------------------------------------------------------

 -----------------------------------
 Geometry optimization at the 2D-PES
 -----------------------------------
 Symbolic Z-matrix:
 Charge =  0 Multiplicity = 1

 SCF Done:  E(RHF) =  -226.390505468     A.U. after   12 cycles
 SCF Done:  E(RHF) =  -226.390518195     A.U. after   11 cycles
 SCF Done:  E(RHF) =  -226.390526583     A.U. after   10 cycles
 SCF Done:  E(RHF) =  -226.390526656     A.U. after    9 cycles
 SCF Done:  E(RHF) =  -226.390526661     A.U. after    7 cycles
 SCF Done:  E(RHF) =  -226.390526662     A.U. after    6 cycles
 Optimization completed.
    -- Stationary point found.

                          Input orientation:
 ---------------------------------------------------------------------
 Center     Atomic      Atomic             Coordinates (Angstroms)
 Number     Number       Type             X           Y           Z
 ---------------------------------------------------------------------
      1          6           0        0.735834    0.598972    0.058744
      2          6           0        1.402150   -0.523787   -0.023150
      3          1           0        1.197412    1.563119    0.099150
      4          1           0        2.472593   -0.519120   -0.030856
      5          1           0        0.911663   -1.475380   -0.057442
      6          8           0       -0.669333    0.693206    0.024200
      7          8           0       -1.234093   -0.071641    1.142651
      8          1           0       -1.641180   -0.814822    0.665482
 ---------------------------------------------------------------------

 Alpha  occ. eigenvalues --  -20.52840 -20.52322 -11.24231 -11.17775  -1.46915
 Alpha  occ. eigenvalues --   -1.23337  -1.03735  -0.79444  -0.70531  -0.68153
 Alpha  occ. eigenvalues --   -0.65056  -0.57621  -0.55071  -0.49804  -0.47298
 Alpha  occ. eigenvalues --   -0.37704
 Alpha virt. eigenvalues --    0.15600   0.24856   0.29106   0.29871   0.32497
 Alpha virt. eigenvalues --    0.36920   0.49949   0.56781   0.88470   0.96855
 Alpha virt. eigenvalues --    0.98414   1.06448   1.09589   1.12211   1.24173

 Mulliken charges:
               1
     1  C    0.142329
     2  C   -0.469560
     3  H    0.249826
     4  H    0.230965
     5  H    0.224492
     6  O   -0.411865
     7  O   -0.375965
     8  H    0.409778
 Sum of Mulliken charges =   0.00000

 Dipole moment (field-independent basis, Debye):
    X=              1.0733    Y=             -1.7825    Z=             -0.7059  Tot=              2.1971
 Quadrupole moment (field-independent basis, Debye-Ang):
   XX=            -20.3479   YY=            -20.8079   ZZ=            -27.4617
   XY=              4.2549   XZ=              0.6577   YZ=             -0.6134

 Normal termination of Gaussian 09 at Fri Apr 12 16:58:20 2019.
