 Gaussian 09, Revision D.01,
 Gaussian 09:  AS64L-G09RevD.01 24-Apr-2013

 --------------------------------------------------------------------
 #p hf 3-21g scf=tight NoSymmetry guess=read opt=(tight,modredundant)
 --------------------------------------------------------------------

 -----------------------------------
 Geometry optimization at the 2D-PES
 -----------------------------------
 Symbolic Z-matrix:
 Charge =  0 Multiplicity = 1

 SCF Done:  E(RHF) =  -226.395986357     A.U. after   13 cycles
 SCF Done:  E(RHF) =  -226.395990247     A.U. after   11 cycles
 SCF Done:  E(RHF) =  -226.395993728     A.U. after   10 cycles
 SCF Done:  E(RHF) =  -226.395993789     A.U. after    8 cycles
 SCF Done:  E(RHF) =  -226.395993792     A.U. after    7 cycles
 Optimization completed.
    -- Stationary point found.

                          Input orientation:
 ---------------------------------------------------------------------
 Center     Atomic      Atomic             Coordinates (Angstroms)
 Number     Number       Type             X           Y           Z
 ---------------------------------------------------------------------
      1          6           0        0.724630    0.634439    0.046818
      2          6           0        1.367870   -0.504916   -0.005360
      3          1           0        1.180903    1.598178    0.103385
      4          1           0        2.437855   -0.519121   -0.003288
      5          1           0        0.849435   -1.440639   -0.052700
      6          8           0       -0.673056    0.674289    0.003322
      7          8           0       -1.059356    2.051477    0.324040
      8          1           0       -1.883694    2.109048   -0.186815
 ---------------------------------------------------------------------

 Alpha  occ. eigenvalues --  -20.53664 -20.52852 -11.24274 -11.16179  -1.47855
 Alpha  occ. eigenvalues --   -1.24141  -1.02569  -0.79801  -0.70658  -0.67370
 Alpha  occ. eigenvalues --   -0.64557  -0.58459  -0.55288  -0.51177  -0.48528
 Alpha  occ. eigenvalues --   -0.35559
 Alpha virt. eigenvalues --    0.19376   0.22779   0.27704   0.32215   0.34048
 Alpha virt. eigenvalues --    0.36062   0.50083   0.57858   0.90459   0.97292
 Alpha virt. eigenvalues --    1.00447   1.06791   1.11059   1.12635   1.22610

 Mulliken charges:
               1
     1  C    0.169906
     2  C   -0.512043
     3  H    0.263710
     4  H    0.225673
     5  H    0.236783
     6  O   -0.419680
     7  O   -0.386657
     8  H    0.422309
 Sum of Mulliken charges =   0.00000

 Dipole moment (field-independent basis, Debye):
    X=             -0.0652    Y=              0.6198    Z=             -0.9932  Tot=              1.1726
 Quadrupole moment (field-independent basis, Debye-Ang):
   XX=            -17.7647   YY=            -20.9665   ZZ=            -25.9140
   XY=             -2.7085   XZ=              1.6760   YZ=             -2.0722

 Normal termination of Gaussian 09 at Fri Apr 12 15:47:44 2019.
