 Gaussian 09, Revision D.01,
 Gaussian 09:  AS64L-G09RevD.01 24-Apr-2013

 --------------------------------------------------------------------
 #p hf 3-21g scf=tight NoSymmetry guess=read opt=(tight,modredundant)
 --------------------------------------------------------------------

 -----------------------------------
 Geometry optimization at the 2D-PES
 -----------------------------------
 Symbolic Z-matrix:
 Charge =  0 Multiplicity = 1

 SCF Done:  E(RHF) =  -226.394564101     A.U. after   12 cycles
 SCF Done:  E(RHF) =  -226.394577743     A.U. after   12 cycles
 SCF Done:  E(RHF) =  -226.394598488     A.U. after   11 cycles
 SCF Done:  E(RHF) =  -226.394598677     A.U. after   10 cycles
 SCF Done:  E(RHF) =  -226.394598699     A.U. after    8 cycles
 SCF Done:  E(RHF) =  -226.394598700     A.U. after    7 cycles
 Optimization completed.
    -- Stationary point found.

                          Input orientation:
 ---------------------------------------------------------------------
 Center     Atomic      Atomic             Coordinates (Angstroms)
 Number     Number       Type             X           Y           Z
 ---------------------------------------------------------------------
      1          6           0        0.739904    0.570298    0.063344
      2          6           0        1.430966   -0.535727   -0.048083
      3          1           0        1.173379    1.548204    0.094348
      4          1           0        2.499490   -0.493466   -0.081984
      5          1           0        0.970525   -1.500054   -0.051943
      6          8           0       -0.651081    0.705038    0.060027
      7          8           0       -1.295345   -0.561165    0.382327
      8          1           0       -1.403058   -0.960065   -0.500272
 ---------------------------------------------------------------------

 Alpha  occ. eigenvalues --  -20.54337 -20.53346 -11.24965 -11.16877  -1.48580
 Alpha  occ. eigenvalues --   -1.24315  -1.03847  -0.80042  -0.70861  -0.69444
 Alpha  occ. eigenvalues --   -0.65448  -0.56835  -0.53796  -0.53235  -0.48912
 Alpha  occ. eigenvalues --   -0.36772
 Alpha virt. eigenvalues --    0.18455   0.22678   0.28553   0.29251   0.33245
 Alpha virt. eigenvalues --    0.37001   0.49567   0.58199   0.88524   0.96465
 Alpha virt. eigenvalues --    0.99937   1.06604   1.09739   1.11642   1.24370

 Mulliken charges:
               1
     1  C    0.149026
     2  C   -0.512056
     3  H    0.262914
     4  H    0.227494
     5  H    0.229863
     6  O   -0.401556
     7  O   -0.367691
     8  H    0.412005
 Sum of Mulliken charges =   0.00000

 Dipole moment (field-independent basis, Debye):
    X=              1.3659    Y=             -0.9249    Z=             -1.7162  Tot=              2.3805
 Quadrupole moment (field-independent basis, Debye-Ang):
   XX=            -22.5424   YY=            -21.0473   ZZ=            -25.4197
   XY=              3.1154   XZ=              2.6842   YZ=              1.7815

 Normal termination of Gaussian 09 at Fri Apr 12 17:34:27 2019.
