 Gaussian 09, Revision D.01,
 Gaussian 09:  AS64L-G09RevD.01 24-Apr-2013

 --------------------------------------------------------------------
 #p hf 3-21g scf=tight NoSymmetry guess=read opt=(tight,modredundant)
 --------------------------------------------------------------------

 -----------------------------------
 Geometry optimization at the 2D-PES
 -----------------------------------
 Symbolic Z-matrix:
 Charge =  0 Multiplicity = 1

 SCF Done:  E(RHF) =  -226.381889934     A.U. after   13 cycles
 SCF Done:  E(RHF) =  -226.381904716     A.U. after   12 cycles
 SCF Done:  E(RHF) =  -226.381914152     A.U. after   10 cycles
 SCF Done:  E(RHF) =  -226.381914330     A.U. after   10 cycles
 SCF Done:  E(RHF) =  -226.381914343     A.U. after    7 cycles
 SCF Done:  E(RHF) =  -226.381914344     A.U. after    6 cycles
 Optimization completed.
    -- Stationary point found.

                          Input orientation:
 ---------------------------------------------------------------------
 Center     Atomic      Atomic             Coordinates (Angstroms)
 Number     Number       Type             X           Y           Z
 ---------------------------------------------------------------------
      1          6           0        0.751404    0.633553    0.024811
      2          6           0        1.388078   -0.509774   -0.009197
      3          1           0        1.229099    1.590441    0.099212
      4          1           0        2.456724   -0.544683    0.050180
      5          1           0        0.850954   -1.434115   -0.072896
      6          8           0       -0.654727    0.670230    0.038768
      7          8           0       -1.150540    1.407864   -1.143342
      8          1           0       -0.363438    1.533621   -1.705192
 ---------------------------------------------------------------------

 Alpha  occ. eigenvalues --  -20.53212 -20.52078 -11.25157 -11.19281  -1.46691
 Alpha  occ. eigenvalues --   -1.23731  -1.04676  -0.81538  -0.71831  -0.67352
 Alpha  occ. eigenvalues --   -0.61257  -0.59395  -0.56090  -0.52901  -0.45227
 Alpha  occ. eigenvalues --   -0.38998
 Alpha virt. eigenvalues --    0.14063   0.25699   0.27471   0.29943   0.31530
 Alpha virt. eigenvalues --    0.35422   0.48913   0.55688   0.87652   0.96240
 Alpha virt. eigenvalues --    0.98167   1.05869   1.09048   1.11141   1.24297

 Mulliken charges:
               1
     1  C    0.070952
     2  C   -0.453351
     3  H    0.241555
     4  H    0.234025
     5  H    0.257877
     6  O   -0.374482
     7  O   -0.375522
     8  H    0.398947
 Sum of Mulliken charges =   0.00000

 Dipole moment (field-independent basis, Debye):
    X=              3.6478    Y=             -0.0415    Z=             -1.2005  Tot=              3.8405
 Quadrupole moment (field-independent basis, Debye-Ang):
   XX=            -25.2091   YY=            -21.3266   ZZ=            -22.2539
   XY=              3.1405   XZ=             -1.1495   YZ=             -2.0139

 Normal termination of Gaussian 09 at Fri Apr 12 15:17:18 2019.
