 Gaussian 09, Revision D.01,
 Gaussian 09:  AS64L-G09RevD.01 24-Apr-2013

 --------------------------------------------------------------------
 #p hf 3-21g scf=tight NoSymmetry guess=read opt=(tight,modredundant)
 --------------------------------------------------------------------

 -----------------------------------
 Geometry optimization at the 2D-PES
 -----------------------------------
 Symbolic Z-matrix:
 Charge =  0 Multiplicity = 1

 SCF Done:  E(RHF) =  -226.387333769     A.U. after   12 cycles
 SCF Done:  E(RHF) =  -226.387340760     A.U. after   12 cycles
 SCF Done:  E(RHF) =  -226.387349943     A.U. after   11 cycles
 SCF Done:  E(RHF) =  -226.387349972     A.U. after    8 cycles
 SCF Done:  E(RHF) =  -226.387349979     A.U. after    6 cycles
 Optimization completed.
    -- Stationary point found.

                          Input orientation:
 ---------------------------------------------------------------------
 Center     Atomic      Atomic             Coordinates (Angstroms)
 Number     Number       Type             X           Y           Z
 ---------------------------------------------------------------------
      1          6           0        0.726000    0.620717    0.032915
      2          6           0        1.383210   -0.511224   -0.012465
      3          1           0        1.191921    1.582674    0.062606
      4          1           0        2.453749   -0.522424   -0.002992
      5          1           0        0.877951   -1.457371   -0.028689
      6          8           0       -0.686795    0.667165    0.033151
      7          8           0       -1.158463    0.496437   -1.349959
      8          1           0       -0.944641   -0.437587   -1.524609
 ---------------------------------------------------------------------

 Alpha  occ. eigenvalues --  -20.52906 -20.52236 -11.24884 -11.19049  -1.46916
 Alpha  occ. eigenvalues --   -1.23253  -1.04665  -0.80308  -0.72352  -0.65876
 Alpha  occ. eigenvalues --   -0.64573  -0.59304  -0.56117  -0.49505  -0.46283
 Alpha  occ. eigenvalues --   -0.39482
 Alpha virt. eigenvalues --    0.14533   0.24097   0.28307   0.30132   0.32106
 Alpha virt. eigenvalues --    0.36203   0.49509   0.55574   0.87832   0.96159
 Alpha virt. eigenvalues --    0.98269   1.05675   1.08753   1.10859   1.25113

 Mulliken charges:
               1
     1  C    0.122469
     2  C   -0.474488
     3  H    0.249448
     4  H    0.237376
     5  H    0.231682
     6  O   -0.393811
     7  O   -0.372765
     8  H    0.400089
 Sum of Mulliken charges =   0.00000

 Dipole moment (field-independent basis, Debye):
    X=              2.4877    Y=             -2.0115    Z=             -0.5367  Tot=              3.2438
 Quadrupole moment (field-independent basis, Debye-Ang):
   XX=            -23.8366   YY=            -22.0588   ZZ=            -24.5926
   XY=              3.3319   XZ=              0.0135   YZ=              2.8437

 Normal termination of Gaussian 09 at Fri Apr 12 15:02:10 2019.
