 Gaussian 09, Revision D.01,
 Gaussian 09:  AS64L-G09RevD.01 24-Apr-2013

 --------------------------------------------------------------------
 #p hf 3-21g scf=tight NoSymmetry guess=read opt=(tight,modredundant)
 --------------------------------------------------------------------

 -----------------------------------
 Geometry optimization at the 2D-PES
 -----------------------------------
 Symbolic Z-matrix:
 Charge =  0 Multiplicity = 1

 SCF Done:  E(RHF) =  -226.394515734     A.U. after   13 cycles
 SCF Done:  E(RHF) =  -226.394525444     A.U. after   11 cycles
 SCF Done:  E(RHF) =  -226.394533660     A.U. after   10 cycles
 SCF Done:  E(RHF) =  -226.394533712     A.U. after    8 cycles
 SCF Done:  E(RHF) =  -226.394533715     A.U. after    7 cycles
 Optimization completed.
    -- Stationary point found.

                          Input orientation:
 ---------------------------------------------------------------------
 Center     Atomic      Atomic             Coordinates (Angstroms)
 Number     Number       Type             X           Y           Z
 ---------------------------------------------------------------------
      1          6           0        0.737066    0.636833    0.054695
      2          6           0        1.370755   -0.506676    0.000090
      3          1           0        1.205934    1.595075    0.117450
      4          1           0        2.440502   -0.534130   -0.019731
      5          1           0        0.838061   -1.434772   -0.035287
      6          8           0       -0.664012    0.681381   -0.012339
      7          8           0       -1.098248    1.849452    0.756183
      8          1           0       -1.411740    2.428964    0.040274
 ---------------------------------------------------------------------

 Alpha  occ. eigenvalues --  -20.53657 -20.52819 -11.24380 -11.16846  -1.47874
 Alpha  occ. eigenvalues --   -1.23957  -1.03002  -0.79941  -0.70537  -0.68323
 Alpha  occ. eigenvalues --   -0.65235  -0.56266  -0.54606  -0.52554  -0.48175
 Alpha  occ. eigenvalues --   -0.36513
 Alpha virt. eigenvalues --    0.18058   0.23800   0.27433   0.31848   0.33302
 Alpha virt. eigenvalues --    0.35731   0.49420   0.57341   0.89935   0.96959
 Alpha virt. eigenvalues --    0.99870   1.06548   1.10699   1.12177   1.23041

 Mulliken charges:
               1
     1  C    0.155851
     2  C   -0.496071
     3  H    0.244524
     4  H    0.226607
     5  H    0.243970
     6  O   -0.406820
     7  O   -0.379954
     8  H    0.411895
 Sum of Mulliken charges =   0.00000

 Dipole moment (field-independent basis, Debye):
    X=              1.1281    Y=              1.4452    Z=             -1.3111  Tot=              2.2539
 Quadrupole moment (field-independent basis, Debye-Ang):
   XX=            -21.4482   YY=            -16.3391   ZZ=            -26.9104
   XY=             -1.9162   XZ=              1.6455   YZ=             -2.5552

 Normal termination of Gaussian 09 at Fri Apr 12 15:57:46 2019.
