 Gaussian 09, Revision D.01,
 Gaussian 09:  AS64L-G09RevD.01 24-Apr-2013

 --------------------------------------------------------------------
 #p hf 3-21g scf=tight NoSymmetry guess=read opt=(tight,modredundant)
 --------------------------------------------------------------------

 -----------------------------------
 Geometry optimization at the 2D-PES
 -----------------------------------
 Symbolic Z-matrix:
 Charge =  0 Multiplicity = 1

 SCF Done:  E(RHF) =  -226.394566494     A.U. after   13 cycles
 SCF Done:  E(RHF) =  -226.394568877     A.U. after   11 cycles
 SCF Done:  E(RHF) =  -226.394570155     A.U. after   10 cycles
 SCF Done:  E(RHF) =  -226.394570187     A.U. after    7 cycles
 SCF Done:  E(RHF) =  -226.394570190     A.U. after    7 cycles
 Optimization completed.
    -- Stationary point found.

                          Input orientation:
 ---------------------------------------------------------------------
 Center     Atomic      Atomic             Coordinates (Angstroms)
 Number     Number       Type             X           Y           Z
 ---------------------------------------------------------------------
      1          6           0        0.724776    0.631568    0.048689
      2          6           0        1.368804   -0.506496    0.004779
      3          1           0        1.186483    1.592274    0.127424
      4          1           0        2.439233   -0.528911   -0.000806
      5          1           0        0.842780   -1.437740   -0.049355
      6          8           0       -0.677251    0.666915   -0.025941
      7          8           0       -1.122928    1.300655    1.230576
      8          1           0       -1.983068    0.858853    1.330060
 ---------------------------------------------------------------------

 Alpha  occ. eigenvalues --  -20.52697 -20.51756 -11.23906 -11.17440  -1.46502
 Alpha  occ. eigenvalues --   -1.23311  -1.03039  -0.79428  -0.70072  -0.67454
 Alpha  occ. eigenvalues --   -0.63139  -0.59591  -0.55786  -0.49918  -0.45186
 Alpha  occ. eigenvalues --   -0.37826
 Alpha virt. eigenvalues --    0.16435   0.26533   0.28587   0.31348   0.32330
 Alpha virt. eigenvalues --    0.36106   0.49487   0.56977   0.89429   0.97366
 Alpha virt. eigenvalues --    0.99184   1.07194   1.10393   1.12609   1.23162

 Mulliken charges:
               1
     1  C    0.155969
     2  C   -0.473843
     3  H    0.245923
     4  H    0.227588
     5  H    0.239668
     6  O   -0.417995
     7  O   -0.394634
     8  H    0.417324
 Sum of Mulliken charges =   0.00000

 Dipole moment (field-independent basis, Debye):
    X=              0.1357    Y=             -0.9590    Z=              0.4942  Tot=              1.0874
 Quadrupole moment (field-independent basis, Debye-Ang):
   XX=            -17.0269   YY=            -24.0924   ZZ=            -25.0895
   XY=              0.7957   XZ=             -2.9641   YZ=             -0.6058

 Normal termination of Gaussian 09 at Fri Apr 12 16:14:02 2019.
