 Gaussian 09, Revision D.01,
 Gaussian 09:  AS64L-G09RevD.01 24-Apr-2013

 --------------------------------------------------------------------
 #p hf 3-21g scf=tight NoSymmetry guess=read opt=(tight,modredundant)
 --------------------------------------------------------------------

 -----------------------------------
 Geometry optimization at the 2D-PES
 -----------------------------------
 Symbolic Z-matrix:
 Charge =  0 Multiplicity = 1

 SCF Done:  E(RHF) =  -226.392510198     A.U. after   13 cycles
 SCF Done:  E(RHF) =  -226.392511212     A.U. after   11 cycles
 SCF Done:  E(RHF) =  -226.392511280     A.U. after    9 cycles
 SCF Done:  E(RHF) =  -226.392511300     A.U. after    7 cycles
 SCF Done:  E(RHF) =  -226.392511301     A.U. after    6 cycles
 Optimization completed.
    -- Stationary point found.

                          Input orientation:
 ---------------------------------------------------------------------
 Center     Atomic      Atomic             Coordinates (Angstroms)
 Number     Number       Type             X           Y           Z
 ---------------------------------------------------------------------
      1          6           0        0.726009    0.622879    0.041841
      2          6           0        1.371259   -0.513727   -0.002620
      3          1           0        1.195692    1.580318    0.123320
      4          1           0        2.441821   -0.537104    0.013565
      5          1           0        0.846023   -1.445163   -0.061411
      6          8           0       -0.679829    0.672035   -0.022067
      7          8           0       -1.158514    0.592593    1.375560
      8          1           0       -2.106870    0.467335    1.200030
 ---------------------------------------------------------------------

 Alpha  occ. eigenvalues --  -20.52069 -20.51377 -11.23528 -11.17690  -1.45776
 Alpha  occ. eigenvalues --   -1.22845  -1.03071  -0.79022  -0.69037  -0.68184
 Alpha  occ. eigenvalues --   -0.63867  -0.57620  -0.55302  -0.50931  -0.43524
 Alpha  occ. eigenvalues --   -0.38416
 Alpha virt. eigenvalues --    0.15415   0.27876   0.29241   0.30641   0.31902
 Alpha virt. eigenvalues --    0.36646   0.49584   0.56870   0.89021   0.97559
 Alpha virt. eigenvalues --    0.99164   1.07014   1.10290   1.12352   1.23810

 Mulliken charges:
               1
     1  C    0.141007
     2  C   -0.448939
     3  H    0.237101
     4  H    0.227317
     5  H    0.243876
     6  O   -0.421962
     7  O   -0.392641
     8  H    0.414241
 Sum of Mulliken charges =   0.00000

 Dipole moment (field-independent basis, Debye):
    X=              0.0740    Y=             -0.5492    Z=             -0.0553  Tot=              0.5570
 Quadrupole moment (field-independent basis, Debye-Ang):
   XX=            -15.9884   YY=            -22.5123   ZZ=            -26.5882
   XY=              0.5521   XZ=             -2.1022   YZ=             -0.1482

 Normal termination of Gaussian 09 at Fri Apr 12 16:40:22 2019.
