 Gaussian 09, Revision D.01,
 Gaussian 09:  AS64L-G09RevD.01 24-Apr-2013

 --------------------------------------------------------------------
 #p hf 3-21g scf=tight NoSymmetry guess=read opt=(tight,modredundant)
 --------------------------------------------------------------------

 -----------------------------------
 Geometry optimization at the 2D-PES
 -----------------------------------
 Symbolic Z-matrix:
 Charge =  0 Multiplicity = 1

 SCF Done:  E(RHF) =  -226.395216736     A.U. after   13 cycles
 SCF Done:  E(RHF) =  -226.395218868     A.U. after   11 cycles
 SCF Done:  E(RHF) =  -226.395219868     A.U. after   10 cycles
 SCF Done:  E(RHF) =  -226.395219902     A.U. after    7 cycles
 SCF Done:  E(RHF) =  -226.395219904     A.U. after    6 cycles
 Optimization completed.
    -- Stationary point found.

                          Input orientation:
 ---------------------------------------------------------------------
 Center     Atomic      Atomic             Coordinates (Angstroms)
 Number     Number       Type             X           Y           Z
 ---------------------------------------------------------------------
      1          6           0        0.725978    0.632742    0.047766
      2          6           0        1.368500   -0.505806    0.003805
      3          1           0        1.187251    1.593623    0.129997
      4          1           0        2.438860   -0.530245   -0.002884
      5          1           0        0.838458   -1.434827   -0.044300
      6          8           0       -0.675661    0.666163   -0.027523
      7          8           0       -1.121721    1.298538    1.227621
      8          1           0       -1.939018    1.719521    0.911746
 ---------------------------------------------------------------------

 Alpha  occ. eigenvalues --  -20.52729 -20.51815 -11.23778 -11.17299  -1.46580
 Alpha  occ. eigenvalues --   -1.23314  -1.02901  -0.79344  -0.69125  -0.68478
 Alpha  occ. eigenvalues --   -0.64728  -0.56760  -0.55126  -0.51577  -0.45426
 Alpha  occ. eigenvalues --   -0.37431
 Alpha virt. eigenvalues --    0.16442   0.26775   0.28684   0.31496   0.32367
 Alpha virt. eigenvalues --    0.36139   0.49399   0.57132   0.89614   0.97386
 Alpha virt. eigenvalues --    0.99752   1.07147   1.10729   1.12654   1.22932

 Mulliken charges:
               1
     1  C    0.153049
     2  C   -0.469854
     3  H    0.239142
     4  H    0.226334
     5  H    0.245768
     6  O   -0.416832
     7  O   -0.392721
     8  H    0.415116
 Sum of Mulliken charges =   0.00000

 Dipole moment (field-independent basis, Debye):
    X=              0.2312    Y=              0.8447    Z=             -0.4034  Tot=              0.9642
 Quadrupole moment (field-independent basis, Debye-Ang):
   XX=            -17.4551   YY=            -19.2068   ZZ=            -27.1611
   XY=             -3.0805   XZ=             -0.9320   YZ=              0.3405

 Normal termination of Gaussian 09 at Fri Apr 12 16:15:46 2019.
