 Gaussian 09, Revision D.01,
 Gaussian 09:  AS64L-G09RevD.01 24-Apr-2013

 --------------------------------------------------------------------
 #p hf 3-21g scf=tight NoSymmetry guess=read opt=(tight,modredundant)
 --------------------------------------------------------------------

 -----------------------------------
 Geometry optimization at the 2D-PES
 -----------------------------------
 Symbolic Z-matrix:
 Charge =  0 Multiplicity = 1

 SCF Done:  E(RHF) =  -226.396198402     A.U. after   13 cycles
 SCF Done:  E(RHF) =  -226.396200944     A.U. after   11 cycles
 SCF Done:  E(RHF) =  -226.396202744     A.U. after   10 cycles
 SCF Done:  E(RHF) =  -226.396202789     A.U. after    8 cycles
 SCF Done:  E(RHF) =  -226.396202791     A.U. after    6 cycles
 Optimization completed.
    -- Stationary point found.

                          Input orientation:
 ---------------------------------------------------------------------
 Center     Atomic      Atomic             Coordinates (Angstroms)
 Number     Number       Type             X           Y           Z
 ---------------------------------------------------------------------
      1          6           0        0.725800    0.635309    0.053028
      2          6           0        1.367914   -0.504245   -0.003669
      3          1           0        1.182644    1.598990    0.109081
      4          1           0        2.437838   -0.520395   -0.017974
      5          1           0        0.846591   -1.438663   -0.043449
      6          8           0       -0.671570    0.674885   -0.001838
      7          8           0       -1.069072    1.970490    0.559611
      8          1           0       -1.887466    2.117204    0.057023
 ---------------------------------------------------------------------

 Alpha  occ. eigenvalues --  -20.53579 -20.52718 -11.24213 -11.16335  -1.47719
 Alpha  occ. eigenvalues --   -1.24060  -1.02609  -0.79737  -0.70388  -0.67718
 Alpha  occ. eigenvalues --   -0.64719  -0.57714  -0.55390  -0.51525  -0.48094
 Alpha  occ. eigenvalues --   -0.35759
 Alpha virt. eigenvalues --    0.18738   0.23550   0.27890   0.32159   0.33735
 Alpha virt. eigenvalues --    0.36084   0.49967   0.57763   0.90410   0.97288
 Alpha virt. eigenvalues --    1.00451   1.06758   1.11022   1.12617   1.22714

 Mulliken charges:
               1
     1  C    0.169090
     2  C   -0.507201
     3  H    0.259689
     4  H    0.225742
     5  H    0.238242
     6  O   -0.419217
     7  O   -0.387544
     8  H    0.421199
 Sum of Mulliken charges =   0.00000

 Dipole moment (field-independent basis, Debye):
    X=             -0.0186    Y=              0.7301    Z=             -0.9233  Tot=              1.1772
 Quadrupole moment (field-independent basis, Debye-Ang):
   XX=            -17.7582   YY=            -20.2578   ZZ=            -26.4292
   XY=             -2.9414   XZ=              1.1222   YZ=             -1.8485

 Normal termination of Gaussian 09 at Fri Apr 12 15:50:20 2019.
