 Gaussian 09, Revision D.01,
 Gaussian 09:  AS64L-G09RevD.01 24-Apr-2013

 --------------------------------------------------------------------
 #p hf 3-21g scf=tight NoSymmetry guess=read opt=(tight,modredundant)
 --------------------------------------------------------------------

 -----------------------------------
 Geometry optimization at the 2D-PES
 -----------------------------------
 Symbolic Z-matrix:
 Charge =  0 Multiplicity = 1

 SCF Done:  E(RHF) =  -226.382218134     A.U. after   12 cycles
 SCF Done:  E(RHF) =  -226.382243162     A.U. after   13 cycles
 SCF Done:  E(RHF) =  -226.382268651     A.U. after   12 cycles
 SCF Done:  E(RHF) =  -226.382268849     A.U. after    9 cycles
 SCF Done:  E(RHF) =  -226.382268886     A.U. after    9 cycles
 SCF Done:  E(RHF) =  -226.382268888     A.U. after    7 cycles
 Optimization completed.
    -- Stationary point found.

                          Input orientation:
 ---------------------------------------------------------------------
 Center     Atomic      Atomic             Coordinates (Angstroms)
 Number     Number       Type             X           Y           Z
 ---------------------------------------------------------------------
      1          6           0        0.759610    0.632187    0.045811
      2          6           0        1.381111   -0.518252   -0.001683
      3          1           0        1.265167    1.575157    0.106217
      4          1           0        2.450513   -0.556829   -0.002678
      5          1           0        0.838799   -1.440381   -0.043443
      6          8           0       -0.640665    0.696683   -0.000696
      7          8           0       -1.124616    2.044756    0.300917
      8          1           0       -0.495773    2.633897   -0.155136
 ---------------------------------------------------------------------

 Alpha  occ. eigenvalues --  -20.54195 -20.53391 -11.25712 -11.17504  -1.48250
 Alpha  occ. eigenvalues --   -1.24571  -1.04003  -0.81810  -0.71805  -0.67195
 Alpha  occ. eigenvalues --   -0.64754  -0.57917  -0.55319  -0.52912  -0.49121
 Alpha  occ. eigenvalues --   -0.36610
 Alpha virt. eigenvalues --    0.18059   0.21866   0.24085   0.31160   0.34017
 Alpha virt. eigenvalues --    0.35692   0.51003   0.56507   0.88931   0.96056
 Alpha virt. eigenvalues --    0.99095   1.05800   1.09991   1.11093   1.23597

 Mulliken charges:
               1
     1  C    0.132624
     2  C   -0.494453
     3  H    0.229320
     4  H    0.230104
     5  H    0.249479
     6  O   -0.385470
     7  O   -0.360955
     8  H    0.399351
 Sum of Mulliken charges =   0.00000

 Dipole moment (field-independent basis, Debye):
    X=              3.0314    Y=              1.3438    Z=             -0.8202  Tot=              3.4159
 Quadrupole moment (field-independent basis, Debye-Ang):
   XX=            -25.0890   YY=            -15.9955   ZZ=            -25.9265
   XY=              3.1839   XZ=              0.8491   YZ=             -1.9425

 Normal termination of Gaussian 09 at Fri Apr 12 15:44:41 2019.
