 Gaussian 09, Revision D.01,
 Gaussian 09:  AS64L-G09RevD.01 24-Apr-2013

 --------------------------------------------------------------------
 #p hf 3-21g scf=tight NoSymmetry guess=read opt=(tight,modredundant)
 --------------------------------------------------------------------

 -----------------------------------
 Geometry optimization at the 2D-PES
 -----------------------------------
 Symbolic Z-matrix:
 Charge =  0 Multiplicity = 1

 SCF Done:  E(RHF) =  -226.388544682     A.U. after   12 cycles
 SCF Done:  E(RHF) =  -226.388559810     A.U. after   11 cycles
 SCF Done:  E(RHF) =  -226.388571042     A.U. after   10 cycles
 SCF Done:  E(RHF) =  -226.388571121     A.U. after    9 cycles
 SCF Done:  E(RHF) =  -226.388571127     A.U. after    8 cycles
 SCF Done:  E(RHF) =  -226.388571127     A.U. after    6 cycles
 Optimization completed.
    -- Stationary point found.

                          Input orientation:
 ---------------------------------------------------------------------
 Center     Atomic      Atomic             Coordinates (Angstroms)
 Number     Number       Type             X           Y           Z
 ---------------------------------------------------------------------
      1          6           0        0.737646    0.597053    0.056666
      2          6           0        1.407826   -0.524100   -0.023401
      3          1           0        1.199552    1.560876    0.099792
      4          1           0        2.478163   -0.514614   -0.028795
      5          1           0        0.927288   -1.480789   -0.070688
      6          8           0       -0.668590    0.691242    0.025343
      7          8           0       -1.245957   -0.065074    1.140947
      8          1           0       -1.363549   -0.944872    0.742949
 ---------------------------------------------------------------------

 Alpha  occ. eigenvalues --  -20.53058 -20.52518 -11.24635 -11.18224  -1.47168
 Alpha  occ. eigenvalues --   -1.23468  -1.04209  -0.79863  -0.71545  -0.67142
 Alpha  occ. eigenvalues --   -0.65566  -0.58070  -0.55356  -0.49179  -0.48091
 Alpha  occ. eigenvalues --   -0.38143
 Alpha virt. eigenvalues --    0.15354   0.23632   0.28676   0.29525   0.33377
 Alpha virt. eigenvalues --    0.36745   0.50047   0.56651   0.88169   0.96463
 Alpha virt. eigenvalues --    0.97886   1.06104   1.09227   1.11535   1.25344

 Mulliken charges:
               1
     1  C    0.140056
     2  C   -0.476088
     3  H    0.252710
     4  H    0.234652
     5  H    0.218201
     6  O   -0.404927
     7  O   -0.370830
     8  H    0.406226
 Sum of Mulliken charges =   0.00000

 Dipole moment (field-independent basis, Debye):
    X=              1.6809    Y=             -1.9869    Z=             -0.5469  Tot=              2.6594
 Quadrupole moment (field-independent basis, Debye-Ang):
   XX=            -22.1974   YY=            -20.2809   ZZ=            -27.2244
   XY=              4.1053   XZ=              0.8032   YZ=             -0.9469

 Normal termination of Gaussian 09 at Fri Apr 12 16:57:39 2019.
