 Gaussian 09, Revision D.01,
 Gaussian 09:  AS64L-G09RevD.01 24-Apr-2013

 --------------------------------------------------------------------
 #p hf 3-21g scf=tight NoSymmetry guess=read opt=(tight,modredundant)
 --------------------------------------------------------------------

 -----------------------------------
 Geometry optimization at the 2D-PES
 -----------------------------------
 Symbolic Z-matrix:
 Charge =  0 Multiplicity = 1

 SCF Done:  E(RHF) =  -226.381640696     A.U. after   13 cycles
 SCF Done:  E(RHF) =  -226.381646550     A.U. after   11 cycles
 SCF Done:  E(RHF) =  -226.381648070     A.U. after    9 cycles
 SCF Done:  E(RHF) =  -226.381648128     A.U. after    9 cycles
 SCF Done:  E(RHF) =  -226.381648132     A.U. after    6 cycles
 Optimization completed.
    -- Stationary point found.

                          Input orientation:
 ---------------------------------------------------------------------
 Center     Atomic      Atomic             Coordinates (Angstroms)
 Number     Number       Type             X           Y           Z
 ---------------------------------------------------------------------
      1          6           0        0.737660    0.618283    0.031368
      2          6           0        1.401465   -0.512475   -0.002114
      3          1           0        1.200235    1.581836    0.078664
      4          1           0        2.471920   -0.517323    0.014626
      5          1           0        0.896978   -1.459082   -0.017950
      6          8           0       -0.670517    0.669617    0.019182
      7          8           0       -1.201113    0.263107   -1.298957
      8          1           0       -0.466269   -0.236923   -1.700853
 ---------------------------------------------------------------------

 Alpha  occ. eigenvalues --  -20.52916 -20.52145 -11.25614 -11.19644  -1.46644
 Alpha  occ. eigenvalues --   -1.23531  -1.05365  -0.81099  -0.72524  -0.67386
 Alpha  occ. eigenvalues --   -0.61311  -0.59809  -0.56091  -0.52854  -0.45118
 Alpha  occ. eigenvalues --   -0.39476
 Alpha virt. eigenvalues --    0.13807   0.24898   0.27724   0.29566   0.30470
 Alpha virt. eigenvalues --    0.36449   0.49782   0.54867   0.87356   0.95931
 Alpha virt. eigenvalues --    0.99157   1.04490   1.08057   1.11012   1.23163

 Mulliken charges:
               1
     1  C    0.095609
     2  C   -0.481012
     3  H    0.253492
     4  H    0.239614
     5  H    0.247650
     6  O   -0.384826
     7  O   -0.369695
     8  H    0.399169
 Sum of Mulliken charges =   0.00000

 Dipole moment (field-independent basis, Debye):
    X=              3.5444    Y=             -1.1958    Z=             -0.9099  Tot=              3.8498
 Quadrupole moment (field-independent basis, Debye-Ang):
   XX=            -25.2880   YY=            -22.0904   ZZ=            -23.0586
   XY=              2.0600   XZ=             -1.3193   YZ=              1.6292

 Normal termination of Gaussian 09 at Fri Apr 12 14:59:59 2019.
