 Gaussian 09, Revision D.01,
 Gaussian 09:  AS64L-G09RevD.01 24-Apr-2013

 --------------------------------------------------------------------
 #p hf 3-21g scf=tight NoSymmetry guess=read opt=(tight,modredundant)
 --------------------------------------------------------------------

 -----------------------------------
 Geometry optimization at the 2D-PES
 -----------------------------------
 Symbolic Z-matrix:
 Charge =  0 Multiplicity = 1

 SCF Done:  E(RHF) =  -226.391511382     A.U. after   13 cycles
 SCF Done:  E(RHF) =  -226.391522161     A.U. after   12 cycles
 SCF Done:  E(RHF) =  -226.391530945     A.U. after   10 cycles
 SCF Done:  E(RHF) =  -226.391531011     A.U. after    9 cycles
 SCF Done:  E(RHF) =  -226.391531022     A.U. after    8 cycles
 Optimization completed.
    -- Stationary point found.

                          Input orientation:
 ---------------------------------------------------------------------
 Center     Atomic      Atomic             Coordinates (Angstroms)
 Number     Number       Type             X           Y           Z
 ---------------------------------------------------------------------
      1          6           0        0.732639    0.638421    0.024606
      2          6           0        1.374018   -0.501979   -0.021150
      3          1           0        1.191721    1.602615    0.073231
      4          1           0        2.443502   -0.529000    0.021059
      5          1           0        0.845428   -1.432271   -0.073105
      6          8           0       -0.674780    0.663393    0.051757
      7          8           0       -1.107361    1.604644   -0.988389
      8          1           0       -0.880236    1.126357   -1.807534
 ---------------------------------------------------------------------

 Alpha  occ. eigenvalues --  -20.53532 -20.52531 -11.24688 -11.18323  -1.47597
 Alpha  occ. eigenvalues --   -1.23669  -1.04007  -0.80446  -0.72527  -0.65666
 Alpha  occ. eigenvalues --   -0.63814  -0.60095  -0.55743  -0.50235  -0.47063
 Alpha  occ. eigenvalues --   -0.38492
 Alpha virt. eigenvalues --    0.15884   0.25349   0.27340   0.30751   0.32116
 Alpha virt. eigenvalues --    0.35629   0.48781   0.56335   0.88772   0.96458
 Alpha virt. eigenvalues --    0.98582   1.06100   1.09571   1.10520   1.24525

 Mulliken charges:
               1
     1  C    0.110399
     2  C   -0.478175
     3  H    0.252819
     4  H    0.232024
     5  H    0.246095
     6  O   -0.387067
     7  O   -0.378772
     8  H    0.402677
 Sum of Mulliken charges =   0.00000

 Dipole moment (field-independent basis, Debye):
    X=              2.3986    Y=             -0.9685    Z=             -1.7956  Tot=              3.1489
 Quadrupole moment (field-independent basis, Debye-Ang):
   XX=            -24.0053   YY=            -24.6649   ZZ=            -20.6952
   XY=              2.7930   XZ=              1.4036   YZ=             -0.7879

 Normal termination of Gaussian 09 at Fri Apr 12 15:19:52 2019.
