 Gaussian 09, Revision D.01,
 Gaussian 09:  AS64L-G09RevD.01 24-Apr-2013

 --------------------------------------------------------------------
 #p hf 3-21g scf=tight NoSymmetry guess=read opt=(tight,modredundant)
 --------------------------------------------------------------------

 -----------------------------------
 Geometry optimization at the 2D-PES
 -----------------------------------
 Symbolic Z-matrix:
 Charge =  0 Multiplicity = 1

 SCF Done:  E(RHF) =  -226.396149657     A.U. after   13 cycles
 SCF Done:  E(RHF) =  -226.396150093     A.U. after   10 cycles
 SCF Done:  E(RHF) =  -226.396150144     A.U. after    8 cycles
 SCF Done:  E(RHF) =  -226.396150156     A.U. after    7 cycles
 Optimization completed.
    -- Stationary point found.

                          Input orientation:
 ---------------------------------------------------------------------
 Center     Atomic      Atomic             Coordinates (Angstroms)
 Number     Number       Type             X           Y           Z
 ---------------------------------------------------------------------
      1          6           0        0.724837    0.634636    0.054248
      2          6           0        1.367669   -0.504234    0.002824
      3          1           0        1.182088    1.598104    0.120650
      4          1           0        2.437674   -0.523959   -0.016350
      5          1           0        0.842302   -1.436309   -0.037682
      6          8           0       -0.672338    0.670663   -0.020788
      7          8           0       -1.092361    1.694515    0.950223
      8          1           0       -2.030931    1.761116    0.707680
 ---------------------------------------------------------------------

 Alpha  occ. eigenvalues --  -20.53151 -20.52172 -11.24008 -11.16799  -1.47076
 Alpha  occ. eigenvalues --   -1.23724  -1.02715  -0.79561  -0.69671  -0.68073
 Alpha  occ. eigenvalues --   -0.64282  -0.57879  -0.55641  -0.51257  -0.46582
 Alpha  occ. eigenvalues --   -0.36475
 Alpha virt. eigenvalues --    0.17497   0.25326   0.28336   0.31918   0.33003
 Alpha virt. eigenvalues --    0.36145   0.49804   0.57443   0.90069   0.97395
 Alpha virt. eigenvalues --    1.00113   1.07021   1.10818   1.12252   1.23671

 Mulliken charges:
               1
     1  C    0.166819
     2  C   -0.491571
     3  H    0.251971
     4  H    0.226127
     5  H    0.240411
     6  O   -0.420562
     7  O   -0.393325
     8  H    0.420131
 Sum of Mulliken charges =   0.00000

 Dipole moment (field-independent basis, Debye):
    X=             -0.1645    Y=              0.3360    Z=             -0.2847  Tot=              0.4701
 Quadrupole moment (field-independent basis, Debye-Ang):
   XX=            -16.4878   YY=            -21.3237   ZZ=            -26.6131
   XY=             -2.5990   XZ=             -1.0003   YZ=             -0.3945

 Normal termination of Gaussian 09 at Fri Apr 12 16:01:21 2019.
