 Gaussian 09, Revision D.01,
 Gaussian 09:  AS64L-G09RevD.01 24-Apr-2013

 --------------------------------------------------------------------
 #p hf 3-21g scf=tight NoSymmetry guess=read opt=(tight,modredundant)
 --------------------------------------------------------------------

 -----------------------------------
 Geometry optimization at the 2D-PES
 -----------------------------------
 Symbolic Z-matrix:
 Charge =  0 Multiplicity = 1

 SCF Done:  E(RHF) =  -226.391622346     A.U. after   12 cycles
 SCF Done:  E(RHF) =  -226.391627515     A.U. after   11 cycles
 SCF Done:  E(RHF) =  -226.391632114     A.U. after   10 cycles
 SCF Done:  E(RHF) =  -226.391632146     A.U. after    8 cycles
 SCF Done:  E(RHF) =  -226.391632152     A.U. after    8 cycles
 Optimization completed.
    -- Stationary point found.

                          Input orientation:
 ---------------------------------------------------------------------
 Center     Atomic      Atomic             Coordinates (Angstroms)
 Number     Number       Type             X           Y           Z
 ---------------------------------------------------------------------
      1          6           0        0.742064    0.596192    0.061340
      2          6           0        1.404160   -0.528088   -0.025537
      3          1           0        1.199345    1.564252    0.082931
      4          1           0        2.474806   -0.526019   -0.038730
      5          1           0        0.897659   -1.470463   -0.051709
      6          8           0       -0.663369    0.701418    0.031472
      7          8           0       -1.241869   -0.243918    0.990809
      8          1           0       -1.431782    0.347378    1.740234
 ---------------------------------------------------------------------

 Alpha  occ. eigenvalues --  -20.52955 -20.52273 -11.23976 -11.17208  -1.47025
 Alpha  occ. eigenvalues --   -1.23199  -1.03350  -0.79747  -0.70253  -0.67424
 Alpha  occ. eigenvalues --   -0.62248  -0.60773  -0.55459  -0.48059  -0.47727
 Alpha  occ. eigenvalues --   -0.37408
 Alpha virt. eigenvalues --    0.16293   0.25496   0.29042   0.29937   0.32588
 Alpha virt. eigenvalues --    0.37033   0.49858   0.57281   0.88456   0.96801
 Alpha virt. eigenvalues --    0.99915   1.06565   1.10100   1.12214   1.23230

 Mulliken charges:
               1
     1  C    0.116114
     2  C   -0.467107
     3  H    0.245134
     4  H    0.224383
     5  H    0.255593
     6  O   -0.404374
     7  O   -0.379753
     8  H    0.410008
 Sum of Mulliken charges =   0.00000

 Dipole moment (field-independent basis, Debye):
    X=              1.4940    Y=              0.8585    Z=              1.8046  Tot=              2.4951
 Quadrupole moment (field-independent basis, Debye-Ang):
   XX=            -21.9453   YY=            -22.1819   ZZ=            -21.0769
   XY=             -0.4698   XZ=             -2.9030   YZ=              2.1713

 Normal termination of Gaussian 09 at Fri Apr 12 17:08:29 2019.
