 Gaussian 09, Revision D.01,
 Gaussian 09:  AS64L-G09RevD.01 24-Apr-2013

 --------------------------------------------------------------------
 #p hf 3-21g scf=tight NoSymmetry guess=read opt=(tight,modredundant)
 --------------------------------------------------------------------

 -----------------------------------
 Geometry optimization at the 2D-PES
 -----------------------------------
 Symbolic Z-matrix:
 Charge =  0 Multiplicity = 1

 SCF Done:  E(RHF) =  -226.395163167     A.U. after   13 cycles
 SCF Done:  E(RHF) =  -226.395168914     A.U. after   11 cycles
 SCF Done:  E(RHF) =  -226.395174216     A.U. after   10 cycles
 SCF Done:  E(RHF) =  -226.395174284     A.U. after    8 cycles
 SCF Done:  E(RHF) =  -226.395174287     A.U. after    6 cycles
 Optimization completed.
    -- Stationary point found.

                          Input orientation:
 ---------------------------------------------------------------------
 Center     Atomic      Atomic             Coordinates (Angstroms)
 Number     Number       Type             X           Y           Z
 ---------------------------------------------------------------------
      1          6           0        0.733880    0.588310    0.062277
      2          6           0        1.404560   -0.530869   -0.033414
      3          1           0        1.183519    1.558928    0.092514
      4          1           0        2.474671   -0.515834   -0.050191
      5          1           0        0.911465   -1.479332   -0.049152
      6          8           0       -0.661058    0.709000    0.038326
      7          8           0       -1.240583   -0.396893    0.810754
      8          1           0       -2.081751   -0.497181    0.333845
 ---------------------------------------------------------------------

 Alpha  occ. eigenvalues --  -20.53131 -20.52419 -11.23955 -11.16461  -1.47121
 Alpha  occ. eigenvalues --   -1.23612  -1.02933  -0.78935  -0.70714  -0.67529
 Alpha  occ. eigenvalues --   -0.64552  -0.57996  -0.53765  -0.52052  -0.46986
 Alpha  occ. eigenvalues --   -0.36158
 Alpha virt. eigenvalues --    0.17386   0.25279   0.29139   0.30265   0.33086
 Alpha virt. eigenvalues --    0.37327   0.50147   0.57980   0.89124   0.97345
 Alpha virt. eigenvalues --    1.00832   1.07221   1.10470   1.12885   1.22545

 Mulliken charges:
               1
     1  C    0.147977
     2  C   -0.483312
     3  H    0.252654
     4  H    0.222474
     5  H    0.244479
     6  O   -0.420525
     7  O   -0.382235
     8  H    0.418488
 Sum of Mulliken charges =   0.00000

 Dipole moment (field-independent basis, Debye):
    X=             -0.0350    Y=             -0.5018    Z=             -0.7959  Tot=              0.9415
 Quadrupole moment (field-independent basis, Debye-Ang):
   XX=            -16.8088   YY=            -22.1670   ZZ=            -26.8808
   XY=              2.8449   XZ=              0.7439   YZ=              0.5819

 Normal termination of Gaussian 09 at Fri Apr 12 17:16:57 2019.
