 Gaussian 09, Revision D.01,
 Gaussian 09:  AS64L-G09RevD.01 24-Apr-2013

 --------------------------------------------------------------------
 #p hf 3-21g scf=tight NoSymmetry guess=read opt=(tight,modredundant)
 --------------------------------------------------------------------

 -----------------------------------
 Geometry optimization at the 2D-PES
 -----------------------------------
 Symbolic Z-matrix:
 Charge =  0 Multiplicity = 1

 SCF Done:  E(RHF) =  -226.395022305     A.U. after   13 cycles
 SCF Done:  E(RHF) =  -226.395029181     A.U. after   11 cycles
 SCF Done:  E(RHF) =  -226.395033843     A.U. after   10 cycles
 SCF Done:  E(RHF) =  -226.395033896     A.U. after    8 cycles
 SCF Done:  E(RHF) =  -226.395033901     A.U. after    7 cycles
 Optimization completed.
    -- Stationary point found.

                          Input orientation:
 ---------------------------------------------------------------------
 Center     Atomic      Atomic             Coordinates (Angstroms)
 Number     Number       Type             X           Y           Z
 ---------------------------------------------------------------------
      1          6           0        0.729894    0.638205    0.023881
      2          6           0        1.369530   -0.503224   -0.019187
      3          1           0        1.187812    1.600944    0.085536
      4          1           0        2.438894   -0.524597    0.019454
      5          1           0        0.846748   -1.436020   -0.078671
      6          8           0       -0.673168    0.674092    0.048543
      7          8           0       -1.076766    2.011554   -0.385303
      8          1           0       -1.463526    1.812778   -1.255659
 ---------------------------------------------------------------------

 Alpha  occ. eigenvalues --  -20.53772 -20.52940 -11.24413 -11.16770  -1.48040
 Alpha  occ. eigenvalues --   -1.24026  -1.03018  -0.79908  -0.71967  -0.66312
 Alpha  occ. eigenvalues --   -0.64250  -0.59572  -0.55252  -0.50244  -0.48688
 Alpha  occ. eigenvalues --   -0.36524
 Alpha virt. eigenvalues --    0.18444   0.23176   0.27546   0.31737   0.33720
 Alpha virt. eigenvalues --    0.35834   0.49543   0.57440   0.90097   0.96774
 Alpha virt. eigenvalues --    1.00062   1.06181   1.10660   1.12204   1.22659

 Mulliken charges:
               1
     1  C    0.149172
     2  C   -0.504831
     3  H    0.261364
     4  H    0.227674
     5  H    0.238926
     6  O   -0.405710
     7  O   -0.381647
     8  H    0.415052
 Sum of Mulliken charges =   0.00000

 Dipole moment (field-independent basis, Debye):
    X=              0.9339    Y=             -0.0418    Z=             -1.9378  Tot=              2.1515
 Quadrupole moment (field-independent basis, Debye-Ang):
   XX=            -21.0725   YY=            -23.2995   ZZ=            -22.4647
   XY=              0.2303   XZ=              3.5462   YZ=             -3.1691

 Normal termination of Gaussian 09 at Fri Apr 12 15:30:43 2019.
