 Gaussian 09, Revision D.01,
 Gaussian 09:  AS64L-G09RevD.01 24-Apr-2013

 --------------------------------------------------------------------
 #p hf 3-21g scf=tight NoSymmetry guess=read opt=(tight,modredundant)
 --------------------------------------------------------------------

 -----------------------------------
 Geometry optimization at the 2D-PES
 -----------------------------------
 Symbolic Z-matrix:
 Charge =  0 Multiplicity = 1

 SCF Done:  E(RHF) =  -226.393197833     A.U. after   13 cycles
 SCF Done:  E(RHF) =  -226.393203362     A.U. after   11 cycles
 SCF Done:  E(RHF) =  -226.393206431     A.U. after   10 cycles
 SCF Done:  E(RHF) =  -226.393206487     A.U. after    8 cycles
 SCF Done:  E(RHF) =  -226.393206494     A.U. after    7 cycles
 SCF Done:  E(RHF) =  -226.393206495     A.U. after    6 cycles
 Optimization completed.
    -- Stationary point found.

                          Input orientation:
 ---------------------------------------------------------------------
 Center     Atomic      Atomic             Coordinates (Angstroms)
 Number     Number       Type             X           Y           Z
 ---------------------------------------------------------------------
      1          6           0        0.720614    0.633650    0.028319
      2          6           0        1.369521   -0.501597   -0.024276
      3          1           0        1.180958    1.597603    0.055171
      4          1           0        2.439816   -0.522230    0.000933
      5          1           0        0.848445   -1.436877   -0.064670
      6          8           0       -0.688629    0.660208    0.052721
      7          8           0       -1.107206    1.200618   -1.251882
      8          1           0       -1.491968    0.403055   -1.654971
 ---------------------------------------------------------------------

 Alpha  occ. eigenvalues --  -20.52838 -20.51975 -11.24174 -11.18046  -1.46800
 Alpha  occ. eigenvalues --   -1.23232  -1.03595  -0.79676  -0.71403  -0.66226
 Alpha  occ. eigenvalues --   -0.63467  -0.60333  -0.55910  -0.48188  -0.46420
 Alpha  occ. eigenvalues --   -0.38779
 Alpha virt. eigenvalues --    0.15833   0.26086   0.28351   0.30987   0.31973
 Alpha virt. eigenvalues --    0.35937   0.49088   0.56472   0.88833   0.96737
 Alpha virt. eigenvalues --    0.98384   1.06793   1.09836   1.12337   1.23226

 Mulliken charges:
               1
     1  C    0.139361
     2  C   -0.470798
     3  H    0.246197
     4  H    0.230427
     5  H    0.237571
     6  O   -0.405448
     7  O   -0.387156
     8  H    0.409846
 Sum of Mulliken charges =   0.00000

 Dipole moment (field-independent basis, Debye):
    X=              1.2013    Y=             -1.7039    Z=             -1.0556  Tot=              2.3369
 Quadrupole moment (field-independent basis, Debye-Ang):
   XX=            -20.8808   YY=            -24.6510   ZZ=            -23.0916
   XY=              2.8844   XZ=              2.7070   YZ=              1.8909

 Normal termination of Gaussian 09 at Fri Apr 12 15:13:39 2019.
