 Gaussian 09, Revision D.01,
 Gaussian 09:  AS64L-G09RevD.01 24-Apr-2013

 --------------------------------------------------------------------
 #p hf 3-21g scf=tight NoSymmetry guess=read opt=(tight,modredundant)
 --------------------------------------------------------------------

 -----------------------------------
 Geometry optimization at the 2D-PES
 -----------------------------------
 Symbolic Z-matrix:
 Charge =  0 Multiplicity = 1

 SCF Done:  E(RHF) =  -226.398150663     A.U. after   12 cycles
 SCF Done:  E(RHF) =  -226.398157234     A.U. after   11 cycles
 SCF Done:  E(RHF) =  -226.398165918     A.U. after   10 cycles
 SCF Done:  E(RHF) =  -226.398166040     A.U. after    9 cycles
 SCF Done:  E(RHF) =  -226.398166050     A.U. after    8 cycles
 SCF Done:  E(RHF) =  -226.398166051     A.U. after    6 cycles
 Optimization completed.
    -- Stationary point found.

                          Input orientation:
 ---------------------------------------------------------------------
 Center     Atomic      Atomic             Coordinates (Angstroms)
 Number     Number       Type             X           Y           Z
 ---------------------------------------------------------------------
      1          6           0        0.737383    0.571248    0.028981
      2          6           0        1.428554   -0.535958   -0.058162
      3          1           0        1.166628    1.548960    0.105578
      4          1           0        2.497891   -0.494271   -0.061416
      5          1           0        0.955038   -1.490876   -0.115481
      6          8           0       -0.651839    0.708178    0.047593
      7          8           0       -1.282122   -0.604063   -0.046991
      8          1           0       -1.792966   -0.490873   -0.866614
 ---------------------------------------------------------------------

 Alpha  occ. eigenvalues --  -20.54126 -20.53030 -11.24404 -11.15953  -1.48274
 Alpha  occ. eigenvalues --   -1.24153  -1.03056  -0.79489  -0.71023  -0.68086
 Alpha  occ. eigenvalues --   -0.64548  -0.58592  -0.54053  -0.51306  -0.48751
 Alpha  occ. eigenvalues --   -0.35951
 Alpha virt. eigenvalues --    0.20036   0.22584   0.28756   0.30028   0.33866
 Alpha virt. eigenvalues --    0.37318   0.49773   0.58975   0.89043   0.96850
 Alpha virt. eigenvalues --    1.01910   1.07329   1.10500   1.12826   1.22051

 Mulliken charges:
               1
     1  C    0.148835
     2  C   -0.510087
     3  H    0.258910
     4  H    0.219932
     5  H    0.251149
     6  O   -0.411260
     7  O   -0.376839
     8  H    0.419361
 Sum of Mulliken charges =   0.00000

 Dipole moment (field-independent basis, Debye):
    X=              0.4656    Y=              0.0484    Z=             -1.7751  Tot=              1.8358
 Quadrupole moment (field-independent basis, Debye-Ang):
   XX=            -19.8127   YY=            -22.6527   ZZ=            -24.0104
   XY=              1.9446   XZ=              3.5825   YZ=              1.1405

 Normal termination of Gaussian 09 at Fri Apr 12 17:57:51 2019.
