 Gaussian 09, Revision D.01,
 Gaussian 09:  AS64L-G09RevD.01 24-Apr-2013

 --------------------------------------------------------------------
 #p hf 3-21g scf=tight NoSymmetry guess=read opt=(tight,modredundant)
 --------------------------------------------------------------------

 -----------------------------------
 Geometry optimization at the 2D-PES
 -----------------------------------
 Symbolic Z-matrix:
 Charge =  0 Multiplicity = 1

 SCF Done:  E(RHF) =  -226.383112468     A.U. after   13 cycles
 SCF Done:  E(RHF) =  -226.383101053     A.U. after   13 cycles
 SCF Done:  E(RHF) =  -226.383229383     A.U. after   12 cycles
 SCF Done:  E(RHF) =  -226.383230156     A.U. after    9 cycles
 SCF Done:  E(RHF) =  -226.383230282     A.U. after    8 cycles
 SCF Done:  E(RHF) =  -226.383230292     A.U. after    8 cycles
 Optimization completed.
    -- Stationary point found.

                          Input orientation:
 ---------------------------------------------------------------------
 Center     Atomic      Atomic             Coordinates (Angstroms)
 Number     Number       Type             X           Y           Z
 ---------------------------------------------------------------------
      1          6           0        0.750191    0.566838    0.025437
      2          6           0        1.461836   -0.533281   -0.049000
      3          1           0        1.181991    1.544465    0.072528
      4          1           0        2.529534   -0.471145   -0.045490
      5          1           0        1.040334   -1.512005   -0.160000
      6          8           0       -0.634153    0.693290    0.052191
      7          8           0       -1.346723   -0.522537    0.447267
      8          1           0       -0.652028   -1.126320    0.765420
 ---------------------------------------------------------------------

 Alpha  occ. eigenvalues --  -20.54680 -20.53273 -11.26606 -11.18450  -1.48550
 Alpha  occ. eigenvalues --   -1.24971  -1.05476  -0.81512  -0.73399  -0.68302
 Alpha  occ. eigenvalues --   -0.64068  -0.58673  -0.55008  -0.54320  -0.48696
 Alpha  occ. eigenvalues --   -0.37518
 Alpha virt. eigenvalues --    0.17033   0.21836   0.27135   0.27968   0.34195
 Alpha virt. eigenvalues --    0.36713   0.49422   0.58890   0.87738   0.95390
 Alpha virt. eigenvalues --    1.01249   1.05277   1.07794   1.10987   1.23240

 Mulliken charges:
               1
     1  C    0.146146
     2  C   -0.542928
     3  H    0.273264
     4  H    0.241453
     5  H    0.220434
     6  O   -0.389076
     7  O   -0.363152
     8  H    0.413861
 Sum of Mulliken charges =   0.00000

 Dipole moment (field-independent basis, Debye):
    X=              3.0503    Y=             -1.1521    Z=              0.6632  Tot=              3.3274
 Quadrupole moment (field-independent basis, Debye-Ang):
   XX=            -25.8086   YY=            -20.1159   ZZ=            -24.9805
   XY=              1.8316   XZ=              0.1874   YZ=             -1.1115

 Normal termination of Gaussian 09 at Fri Apr 12 17:42:50 2019.
