 Gaussian 09, Revision D.01,
 Gaussian 09:  AS64L-G09RevD.01 24-Apr-2013

 --------------------------------------------------------------------
 #p hf 3-21g scf=tight NoSymmetry guess=read opt=(tight,modredundant)
 --------------------------------------------------------------------

 -----------------------------------
 Geometry optimization at the 2D-PES
 -----------------------------------
 Symbolic Z-matrix:
 Charge =  0 Multiplicity = 1

 SCF Done:  E(RHF) =  -226.391787184     A.U. after   13 cycles
 SCF Done:  E(RHF) =  -226.391797583     A.U. after   12 cycles
 SCF Done:  E(RHF) =  -226.391804047     A.U. after   10 cycles
 SCF Done:  E(RHF) =  -226.391804118     A.U. after    8 cycles
 SCF Done:  E(RHF) =  -226.391804122     A.U. after    7 cycles
 SCF Done:  E(RHF) =  -226.391804123     A.U. after    6 cycles
 Optimization completed.
    -- Stationary point found.

                          Input orientation:
 ---------------------------------------------------------------------
 Center     Atomic      Atomic             Coordinates (Angstroms)
 Number     Number       Type             X           Y           Z
 ---------------------------------------------------------------------
      1          6           0        0.734031    0.601675    0.058426
      2          6           0        1.396391   -0.523230   -0.022357
      3          1           0        1.195931    1.565696    0.099794
      4          1           0        2.466927   -0.523482   -0.028700
      5          1           0        0.896553   -1.469680   -0.051058
      6          8           0       -0.669823    0.694466    0.020307
      7          8           0       -1.221733   -0.076954    1.144430
      8          1           0       -1.882107   -0.610238    0.670279
 ---------------------------------------------------------------------

 Alpha  occ. eigenvalues --  -20.52622 -20.52103 -11.23925 -11.17436  -1.46611
 Alpha  occ. eigenvalues --   -1.23225  -1.03362  -0.79122  -0.69389  -0.69015
 Alpha  occ. eigenvalues --   -0.64600  -0.57390  -0.54780  -0.50730  -0.46336
 Alpha  occ. eigenvalues --   -0.37331
 Alpha virt. eigenvalues --    0.15785   0.25942   0.29389   0.30086   0.32080
 Alpha virt. eigenvalues --    0.37056   0.49963   0.56972   0.88733   0.97149
 Alpha virt. eigenvalues --    0.99335   1.06692   1.09933   1.12722   1.23001

 Mulliken charges:
               1
     1  C    0.142521
     2  C   -0.464688
     3  H    0.247446
     4  H    0.228062
     5  H    0.232413
     6  O   -0.417730
     7  O   -0.380994
     8  H    0.412969
 Sum of Mulliken charges =   0.00000

 Dipole moment (field-independent basis, Debye):
    X=              0.5418    Y=             -1.4101    Z=             -0.7015  Tot=              1.6655
 Quadrupole moment (field-independent basis, Debye-Ang):
   XX=            -18.3919   YY=            -21.4863   ZZ=            -27.4651
   XY=              3.8424   XZ=              0.2971   YZ=             -0.3487

 Normal termination of Gaussian 09 at Fri Apr 12 16:58:54 2019.
