 Gaussian 09, Revision D.01,
 Gaussian 09:  AS64L-G09RevD.01 24-Apr-2013

 --------------------------------------------------------------------
 #p hf 3-21g scf=tight NoSymmetry guess=read opt=(tight,modredundant)
 --------------------------------------------------------------------

 -----------------------------------
 Geometry optimization at the 2D-PES
 -----------------------------------
 Symbolic Z-matrix:
 Charge =  0 Multiplicity = 1

 SCF Done:  E(RHF) =  -226.394775300     A.U. after   13 cycles
 SCF Done:  E(RHF) =  -226.394780747     A.U. after   11 cycles
 SCF Done:  E(RHF) =  -226.394783544     A.U. after   10 cycles
 SCF Done:  E(RHF) =  -226.394783603     A.U. after    8 cycles
 SCF Done:  E(RHF) =  -226.394783607     A.U. after    6 cycles
 Optimization completed.
    -- Stationary point found.

                          Input orientation:
 ---------------------------------------------------------------------
 Center     Atomic      Atomic             Coordinates (Angstroms)
 Number     Number       Type             X           Y           Z
 ---------------------------------------------------------------------
      1          6           0        0.729090    0.632923    0.048365
      2          6           0        1.370079   -0.506227    0.003361
      3          1           0        1.193648    1.592808    0.127327
      4          1           0        2.440386   -0.532616   -0.005263
      5          1           0        0.837809   -1.434051   -0.042855
      6          8           0       -0.674021    0.667653   -0.025276
      7          8           0       -1.127692    1.298174    1.225415
      8          1           0       -1.731540    1.970438    0.866303
 ---------------------------------------------------------------------

 Alpha  occ. eigenvalues --  -20.52859 -20.51965 -11.23871 -11.17365  -1.46786
 Alpha  occ. eigenvalues --   -1.23349  -1.03004  -0.79487  -0.69418  -0.68396
 Alpha  occ. eigenvalues --   -0.64968  -0.56739  -0.54961  -0.51105  -0.46100
 Alpha  occ. eigenvalues --   -0.37524
 Alpha virt. eigenvalues --    0.16465   0.26466   0.28410   0.31472   0.32466
 Alpha virt. eigenvalues --    0.35974   0.49235   0.57025   0.89453   0.97305
 Alpha virt. eigenvalues --    0.99479   1.07138   1.10660   1.12868   1.22454

 Mulliken charges:
               1
     1  C    0.149167
     2  C   -0.469209
     3  H    0.234737
     4  H    0.226377
     5  H    0.247612
     6  O   -0.411659
     7  O   -0.389138
     8  H    0.412113
 Sum of Mulliken charges =   0.00000

 Dipole moment (field-independent basis, Debye):
    X=              0.6845    Y=              1.3478    Z=             -0.4956  Tot=              1.5908
 Quadrupole moment (field-independent basis, Debye-Ang):
   XX=            -19.2443   YY=            -17.1682   ZZ=            -27.3234
   XY=             -3.2658   XZ=             -0.3334   YZ=              0.6192

 Normal termination of Gaussian 09 at Fri Apr 12 16:16:17 2019.
