 Gaussian 09, Revision D.01,
 Gaussian 09:  AS64L-G09RevD.01 24-Apr-2013

 --------------------------------------------------------------------
 #p hf 3-21g scf=tight NoSymmetry guess=read opt=(tight,modredundant)
 --------------------------------------------------------------------

 -----------------------------------
 Geometry optimization at the 2D-PES
 -----------------------------------
 Symbolic Z-matrix:
 Charge =  0 Multiplicity = 1

 SCF Done:  E(RHF) =  -226.380351805     A.U. after   13 cycles
 SCF Done:  E(RHF) =  -226.380359196     A.U. after   12 cycles
 SCF Done:  E(RHF) =  -226.380363187     A.U. after   10 cycles
 SCF Done:  E(RHF) =  -226.380363278     A.U. after    9 cycles
 SCF Done:  E(RHF) =  -226.380363295     A.U. after    8 cycles
 SCF Done:  E(RHF) =  -226.380363296     A.U. after    5 cycles
 Optimization completed.
    -- Stationary point found.

                          Input orientation:
 ---------------------------------------------------------------------
 Center     Atomic      Atomic             Coordinates (Angstroms)
 Number     Number       Type             X           Y           Z
 ---------------------------------------------------------------------
      1          6           0        0.762198    0.633911    0.014826
      2          6           0        1.386943   -0.515670   -0.008787
      3          1           0        1.257311    1.579931    0.119917
      4          1           0        2.453996   -0.557340    0.064011
      5          1           0        0.845283   -1.435909   -0.086989
      6          8           0       -0.638192    0.688693    0.038257
      7          8           0       -1.139745    1.903322   -0.624595
      8          1           0       -0.362978    2.296216   -1.062686
 ---------------------------------------------------------------------

 Alpha  occ. eigenvalues --  -20.53910 -20.52813 -11.25641 -11.18313  -1.47567
 Alpha  occ. eigenvalues --   -1.24410  -1.04346  -0.81948  -0.71990  -0.67125
 Alpha  occ. eigenvalues --   -0.62941  -0.59184  -0.55405  -0.53183  -0.47644
 Alpha  occ. eigenvalues --   -0.37341
 Alpha virt. eigenvalues --    0.15658   0.23629   0.25538   0.30675   0.33371
 Alpha virt. eigenvalues --    0.35255   0.50018   0.56096   0.88393   0.95986
 Alpha virt. eigenvalues --    0.99122   1.05981   1.09628   1.11037   1.23481

 Mulliken charges:
               1
     1  C    0.102769
     2  C   -0.478865
     3  H    0.235135
     4  H    0.232371
     5  H    0.253685
     6  O   -0.377015
     7  O   -0.367790
     8  H    0.399709
 Sum of Mulliken charges =   0.00000

 Dipole moment (field-independent basis, Debye):
    X=              3.4451    Y=              0.7331    Z=             -0.9371  Tot=              3.6448
 Quadrupole moment (field-independent basis, Debye-Ang):
   XX=            -25.2657   YY=            -18.5153   ZZ=            -24.1543
   XY=              3.8126   XZ=             -0.3191   YZ=             -2.5446

 Normal termination of Gaussian 09 at Fri Apr 12 15:25:50 2019.
