 Gaussian 09, Revision D.01,
 Gaussian 09:  AS64L-G09RevD.01 24-Apr-2013

 --------------------------------------------------------------------
 #p hf 3-21g scf=tight NoSymmetry guess=read opt=(tight,modredundant)
 --------------------------------------------------------------------

 -----------------------------------
 Geometry optimization at the 2D-PES
 -----------------------------------
 Symbolic Z-matrix:
 Charge =  0 Multiplicity = 1

 SCF Done:  E(RHF) =  -226.384960767     A.U. after   13 cycles
 SCF Done:  E(RHF) =  -226.384953399     A.U. after   13 cycles
 SCF Done:  E(RHF) =  -226.385070757     A.U. after   10 cycles
 SCF Done:  E(RHF) =  -226.385071810     A.U. after   10 cycles
 SCF Done:  E(RHF) =  -226.385071969     A.U. after    9 cycles
 SCF Done:  E(RHF) =  -226.385071982     A.U. after    8 cycles
 SCF Done:  E(RHF) =  -226.385071983     A.U. after    6 cycles
 Optimization completed.
    -- Stationary point found.

                          Input orientation:
 ---------------------------------------------------------------------
 Center     Atomic      Atomic             Coordinates (Angstroms)
 Number     Number       Type             X           Y           Z
 ---------------------------------------------------------------------
      1          6           0        0.747551    0.571136    0.024978
      2          6           0        1.451541   -0.534205   -0.045347
      3          1           0        1.180574    1.548080    0.074342
      4          1           0        2.519776   -0.482864   -0.036070
      5          1           0        1.013594   -1.504775   -0.160625
      6          8           0       -0.638047    0.693911    0.046772
      7          8           0       -1.328649   -0.533410    0.443784
      8          1           0       -0.646479   -1.053169    0.908550
 ---------------------------------------------------------------------

 Alpha  occ. eigenvalues --  -20.54666 -20.53290 -11.26474 -11.18349  -1.48610
 Alpha  occ. eigenvalues --   -1.24840  -1.05366  -0.81434  -0.73119  -0.68371
 Alpha  occ. eigenvalues --   -0.64159  -0.58356  -0.55417  -0.54059  -0.48570
 Alpha  occ. eigenvalues --   -0.37562
 Alpha virt. eigenvalues --    0.17050   0.22189   0.27357   0.28386   0.33218
 Alpha virt. eigenvalues --    0.36641   0.49404   0.58210   0.87696   0.95633
 Alpha virt. eigenvalues --    1.01018   1.05237   1.07951   1.11122   1.23252

 Mulliken charges:
               1
     1  C    0.142222
     2  C   -0.541801
     3  H    0.272263
     4  H    0.239402
     5  H    0.227618
     6  O   -0.388103
     7  O   -0.363033
     8  H    0.411431
 Sum of Mulliken charges =   0.00000

 Dipole moment (field-independent basis, Debye):
    X=              3.0294    Y=             -0.9995    Z=              0.9523  Tot=              3.3291
 Quadrupole moment (field-independent basis, Debye-Ang):
   XX=            -25.7606   YY=            -20.4834   ZZ=            -24.4378
   XY=              1.6845   XZ=             -0.0173   YZ=             -1.3046

 Normal termination of Gaussian 09 at Fri Apr 12 17:42:26 2019.
