 Gaussian 09, Revision D.01,
 Gaussian 09:  AS64L-G09RevD.01 24-Apr-2013

 --------------------------------------------------------------------
 #p hf 3-21g scf=tight NoSymmetry guess=read opt=(tight,modredundant)
 --------------------------------------------------------------------

 -----------------------------------
 Geometry optimization at the 2D-PES
 -----------------------------------
 Symbolic Z-matrix:
 Charge =  0 Multiplicity = 1

 SCF Done:  E(RHF) =  -226.381055461     A.U. after   13 cycles
 SCF Done:  E(RHF) =  -226.381078286     A.U. after   12 cycles
 SCF Done:  E(RHF) =  -226.381085829     A.U. after   11 cycles
 SCF Done:  E(RHF) =  -226.381086269     A.U. after   10 cycles
 SCF Done:  E(RHF) =  -226.381086300     A.U. after    8 cycles
 SCF Done:  E(RHF) =  -226.381086302     A.U. after    7 cycles
 Optimization completed.
    -- Stationary point found.

                          Input orientation:
 ---------------------------------------------------------------------
 Center     Atomic      Atomic             Coordinates (Angstroms)
 Number     Number       Type             X           Y           Z
 ---------------------------------------------------------------------
      1          6           0        0.741039    0.583657    0.016680
      2          6           0        1.442522   -0.524692    0.016495
      3          1           0        1.181893    1.555822    0.086979
      4          1           0        2.510344   -0.478034    0.061337
      5          1           0        1.006500   -1.504528   -0.000108
      6          8           0       -0.652541    0.692462   -0.020437
      7          8           0       -1.303598   -0.269279   -0.918111
      8          1           0       -0.648653   -0.977065   -1.044582
 ---------------------------------------------------------------------

 Alpha  occ. eigenvalues --  -20.53967 -20.52941 -11.26284 -11.18893  -1.47794
 Alpha  occ. eigenvalues --   -1.24496  -1.05488  -0.81259  -0.73306  -0.67901
 Alpha  occ. eigenvalues --   -0.63430  -0.59237  -0.55039  -0.53658  -0.47781
 Alpha  occ. eigenvalues --   -0.37955
 Alpha virt. eigenvalues --    0.15551   0.22330   0.27289   0.28151   0.34224
 Alpha virt. eigenvalues --    0.36746   0.49917   0.57934   0.87628   0.95317
 Alpha virt. eigenvalues --    1.00791   1.05169   1.07980   1.10947   1.23643

 Mulliken charges:
               1
     1  C    0.137860
     2  C   -0.523534
     3  H    0.267746
     4  H    0.242911
     5  H    0.219286
     6  O   -0.390689
     7  O   -0.363590
     8  H    0.410009
 Sum of Mulliken charges =   0.00000

 Dipole moment (field-independent basis, Debye):
    X=              3.1201    Y=             -1.4322    Z=             -0.3227  Tot=              3.4482
 Quadrupole moment (field-independent basis, Debye-Ang):
   XX=            -25.4928   YY=            -20.3043   ZZ=            -25.2030
   XY=              2.1950   XZ=             -0.7637   YZ=              1.7589

 Normal termination of Gaussian 09 at Fri Apr 12 14:54:10 2019.
