 Gaussian 09, Revision D.01,
 Gaussian 09:  AS64L-G09RevD.01 24-Apr-2013

 --------------------------------------------------------------------
 #p hf 3-21g scf=tight NoSymmetry guess=read opt=(tight,modredundant)
 --------------------------------------------------------------------

 -----------------------------------
 Geometry optimization at the 2D-PES
 -----------------------------------
 Symbolic Z-matrix:
 Charge =  0 Multiplicity = 1

 SCF Done:  E(RHF) =  -226.393199528     A.U. after   13 cycles
 SCF Done:  E(RHF) =  -226.393200643     A.U. after   11 cycles
 SCF Done:  E(RHF) =  -226.393201053     A.U. after   10 cycles
 SCF Done:  E(RHF) =  -226.393201075     A.U. after    7 cycles
 SCF Done:  E(RHF) =  -226.393201076     A.U. after    6 cycles
 Optimization completed.
    -- Stationary point found.

                          Input orientation:
 ---------------------------------------------------------------------
 Center     Atomic      Atomic             Coordinates (Angstroms)
 Number     Number       Type             X           Y           Z
 ---------------------------------------------------------------------
      1          6           0        0.724423    0.626930    0.043161
      2          6           0        1.369876   -0.509797    0.000717
      3          1           0        1.190734    1.585407    0.129106
      4          1           0        2.440472   -0.532904    0.011525
      5          1           0        0.844012   -1.440774   -0.059077
      6          8           0       -0.680434    0.667026   -0.025088
      7          8           0       -1.145494    0.832849    1.369337
      8          1           0       -2.095661    0.681783    1.227990
 ---------------------------------------------------------------------

 Alpha  occ. eigenvalues --  -20.52194 -20.51409 -11.23595 -11.17663  -1.45899
 Alpha  occ. eigenvalues --   -1.22938  -1.03047  -0.79124  -0.68850  -0.68438
 Alpha  occ. eigenvalues --   -0.63800  -0.57717  -0.55549  -0.50812  -0.43690
 Alpha  occ. eigenvalues --   -0.38378
 Alpha virt. eigenvalues --    0.15615   0.27757   0.29072   0.30887   0.31941
 Alpha virt. eigenvalues --    0.36461   0.49496   0.56908   0.89138   0.97535
 Alpha virt. eigenvalues --    0.99181   1.07078   1.10328   1.12326   1.23907

 Mulliken charges:
               1
     1  C    0.145259
     2  C   -0.453866
     3  H    0.238125
     4  H    0.227368
     5  H    0.243394
     6  O   -0.421196
     7  O   -0.394162
     8  H    0.415077
 Sum of Mulliken charges =   0.00000

 Dipole moment (field-independent basis, Debye):
    X=              0.0500    Y=             -0.5358    Z=              0.0040  Tot=              0.5382
 Quadrupole moment (field-independent basis, Debye-Ang):
   XX=            -16.0405   YY=            -22.6641   ZZ=            -26.4230
   XY=              0.1558   XZ=             -2.2851   YZ=             -0.2434

 Normal termination of Gaussian 09 at Fri Apr 12 16:28:56 2019.
