 Gaussian 09, Revision D.01,
 Gaussian 09:  AS64L-G09RevD.01 24-Apr-2013

 --------------------------------------------------------------------
 #p hf 3-21g scf=tight NoSymmetry guess=read opt=(tight,modredundant)
 --------------------------------------------------------------------

 -----------------------------------
 Geometry optimization at the 2D-PES
 -----------------------------------
 Symbolic Z-matrix:
 Charge =  0 Multiplicity = 1

 SCF Done:  E(RHF) =  -226.396145727     A.U. after   13 cycles
 SCF Done:  E(RHF) =  -226.396146135     A.U. after    9 cycles
 SCF Done:  E(RHF) =  -226.396146183     A.U. after    7 cycles
 SCF Done:  E(RHF) =  -226.396146194     A.U. after    7 cycles
 Optimization completed.
    -- Stationary point found.

                          Input orientation:
 ---------------------------------------------------------------------
 Center     Atomic      Atomic             Coordinates (Angstroms)
 Number     Number       Type             X           Y           Z
 ---------------------------------------------------------------------
      1          6           0        0.724206    0.634026    0.055395
      2          6           0        1.367114   -0.505100    0.002308
      3          1           0        1.181584    1.597608    0.116212
      4          1           0        2.437092   -0.522656   -0.012519
      5          1           0        0.844414   -1.438615   -0.040930
      6          8           0       -0.671692    0.673101   -0.018860
      7          8           0       -1.078106    1.851493    0.761630
      8          1           0       -2.040812    1.787230    0.647727
 ---------------------------------------------------------------------

 Alpha  occ. eigenvalues --  -20.53346 -20.52380 -11.24130 -11.16540  -1.47332
 Alpha  occ. eigenvalues --   -1.23903  -1.02639  -0.79691  -0.70099  -0.67592
 Alpha  occ. eigenvalues --   -0.63915  -0.59071  -0.55534  -0.50855  -0.47298
 Alpha  occ. eigenvalues --   -0.36069
 Alpha virt. eigenvalues --    0.18179   0.24426   0.28024   0.32048   0.33478
 Alpha virt. eigenvalues --    0.36124   0.49997   0.57599   0.90199   0.97418
 Alpha virt. eigenvalues --    1.00125   1.07091   1.10867   1.12212   1.23652

 Mulliken charges:
               1
     1  C    0.171349
     2  C   -0.501194
     3  H    0.257763
     4  H    0.226008
     5  H    0.238051
     6  O   -0.421529
     7  O   -0.392567
     8  H    0.422119
 Sum of Mulliken charges =   0.00000

 Dipole moment (field-independent basis, Debye):
    X=             -0.2818    Y=              0.1767    Z=             -0.0262  Tot=              0.3336
 Quadrupole moment (field-independent basis, Debye-Ang):
   XX=            -16.3399   YY=            -22.2415   ZZ=            -26.1114
   XY=             -2.3683   XZ=             -1.2411   YZ=             -0.1495

 Normal termination of Gaussian 09 at Fri Apr 12 15:59:52 2019.
