 Gaussian 09, Revision D.01,
 Gaussian 09:  AS64L-G09RevD.01 24-Apr-2013

 --------------------------------------------------------------------
 #p hf 3-21g scf=tight NoSymmetry guess=read opt=(tight,modredundant)
 --------------------------------------------------------------------

 -----------------------------------
 Geometry optimization at the 2D-PES
 -----------------------------------
 Symbolic Z-matrix:
 Charge =  0 Multiplicity = 1

 SCF Done:  E(RHF) =  -226.387654302     A.U. after   13 cycles
 SCF Done:  E(RHF) =  -226.387665252     A.U. after   12 cycles
 SCF Done:  E(RHF) =  -226.387673380     A.U. after   10 cycles
 SCF Done:  E(RHF) =  -226.387673433     A.U. after    9 cycles
 SCF Done:  E(RHF) =  -226.387673441     A.U. after    8 cycles
 SCF Done:  E(RHF) =  -226.387673442     A.U. after    7 cycles
 Optimization completed.
    -- Stationary point found.

                          Input orientation:
 ---------------------------------------------------------------------
 Center     Atomic      Atomic             Coordinates (Angstroms)
 Number     Number       Type             X           Y           Z
 ---------------------------------------------------------------------
      1          6           0        0.742288    0.623865    0.044622
      2          6           0        1.382542   -0.515025   -0.002422
      3          1           0        1.221712    1.581144    0.101517
      4          1           0        2.453130   -0.545719   -0.005336
      5          1           0        0.846635   -1.440798   -0.051263
      6          8           0       -0.667705    0.675057   -0.014895
      7          8           0       -1.181696    0.842667    1.353765
      8          1           0       -0.916109    1.754997    1.573293
 ---------------------------------------------------------------------

 Alpha  occ. eigenvalues --  -20.52829 -20.52029 -11.24261 -11.18461  -1.46679
 Alpha  occ. eigenvalues --   -1.23151  -1.03872  -0.80645  -0.69423  -0.69026
 Alpha  occ. eigenvalues --   -0.62664  -0.58073  -0.56955  -0.48661  -0.46333
 Alpha  occ. eigenvalues --   -0.38992
 Alpha virt. eigenvalues --    0.14863   0.26027   0.27717   0.30486   0.32334
 Alpha virt. eigenvalues --    0.35722   0.49395   0.56116   0.88215   0.96645
 Alpha virt. eigenvalues --    0.98540   1.06098   1.09579   1.10897   1.25601

 Mulliken charges:
               1
     1  C    0.102249
     2  C   -0.444623
     3  H    0.224503
     4  H    0.229070
     5  H    0.256676
     6  O   -0.388733
     7  O   -0.376288
     8  H    0.397145
 Sum of Mulliken charges =   0.00000

 Dipole moment (field-independent basis, Debye):
    X=              2.6051    Y=              1.4590    Z=              0.6658  Tot=              3.0591
 Quadrupole moment (field-independent basis, Debye-Ang):
   XX=            -24.0472   YY=            -17.1237   ZZ=            -24.3323
   XY=             -0.3718   XZ=              0.2258   YZ=              3.7997

 Normal termination of Gaussian 09 at Fri Apr 12 16:32:34 2019.
