 Gaussian 09, Revision D.01,
 Gaussian 09:  AS64L-G09RevD.01 24-Apr-2013

 --------------------------------------------------------------------
 #p hf 3-21g scf=tight NoSymmetry guess=read opt=(tight,modredundant)
 --------------------------------------------------------------------

 -----------------------------------
 Geometry optimization at the 2D-PES
 -----------------------------------
 Symbolic Z-matrix:
 Charge =  0 Multiplicity = 1

 SCF Done:  E(RHF) =  -226.395108371     A.U. after   12 cycles
 SCF Done:  E(RHF) =  -226.395114226     A.U. after   11 cycles
 SCF Done:  E(RHF) =  -226.395119159     A.U. after   10 cycles
 SCF Done:  E(RHF) =  -226.395119223     A.U. after    9 cycles
 SCF Done:  E(RHF) =  -226.395119233     A.U. after    8 cycles
 Optimization completed.
    -- Stationary point found.

                          Input orientation:
 ---------------------------------------------------------------------
 Center     Atomic      Atomic             Coordinates (Angstroms)
 Number     Number       Type             X           Y           Z
 ---------------------------------------------------------------------
      1          6           0        0.739558    0.579204    0.062900
      2          6           0        1.417068   -0.535235   -0.035639
      3          1           0        1.180537    1.554723    0.081990
      4          1           0        2.486957   -0.510347   -0.058062
      5          1           0        0.928479   -1.485386   -0.065252
      6          8           0       -0.657082    0.706852    0.050078
      7          8           0       -1.266910   -0.497576    0.610731
      8          1           0       -1.611254   -0.145785    1.449689
 ---------------------------------------------------------------------

 Alpha  occ. eigenvalues --  -20.53606 -20.52685 -11.24197 -11.16457  -1.47726
 Alpha  occ. eigenvalues --   -1.23697  -1.03157  -0.79628  -0.70728  -0.67422
 Alpha  occ. eigenvalues --   -0.63337  -0.60267  -0.54761  -0.49340  -0.48451
 Alpha  occ. eigenvalues --   -0.36512
 Alpha virt. eigenvalues --    0.18047   0.24194   0.28896   0.29960   0.33395
 Alpha virt. eigenvalues --    0.37207   0.49835   0.58280   0.88776   0.96799
 Alpha virt. eigenvalues --    1.01089   1.07019   1.10394   1.12617   1.22444

 Mulliken charges:
               1
     1  C    0.132429
     2  C   -0.491470
     3  H    0.253096
     4  H    0.221606
     5  H    0.255261
     6  O   -0.407679
     7  O   -0.379106
     8  H    0.415865
 Sum of Mulliken charges =   0.00000

 Dipole moment (field-independent basis, Debye):
    X=              0.9759    Y=              0.4539    Z=              1.9353  Tot=              2.2144
 Quadrupole moment (field-independent basis, Debye-Ang):
   XX=            -21.0183   YY=            -22.8629   ZZ=            -21.7732
   XY=              0.6332   XZ=             -3.6108   YZ=              0.4401

 Normal termination of Gaussian 09 at Fri Apr 12 17:25:49 2019.
