 Gaussian 09, Revision D.01,
 Gaussian 09:  AS64L-G09RevD.01 24-Apr-2013

 --------------------------------------------------------------------
 #p hf 3-21g scf=tight NoSymmetry guess=read opt=(tight,modredundant)
 --------------------------------------------------------------------

 -----------------------------------
 Geometry optimization at the 2D-PES
 -----------------------------------
 Symbolic Z-matrix:
 Charge =  0 Multiplicity = 1

 SCF Done:  E(RHF) =  -226.394591524     A.U. after   13 cycles
 SCF Done:  E(RHF) =  -226.394598093     A.U. after   11 cycles
 SCF Done:  E(RHF) =  -226.394603368     A.U. after   10 cycles
 SCF Done:  E(RHF) =  -226.394603391     A.U. after    8 cycles
 SCF Done:  E(RHF) =  -226.394603394     A.U. after    6 cycles
 Optimization completed.
    -- Stationary point found.

                          Input orientation:
 ---------------------------------------------------------------------
 Center     Atomic      Atomic             Coordinates (Angstroms)
 Number     Number       Type             X           Y           Z
 ---------------------------------------------------------------------
      1          6           0        0.731183    0.638847    0.021694
      2          6           0        1.370931   -0.502462   -0.019991
      3          1           0        1.188828    1.602052    0.082248
      4          1           0        2.439991   -0.526499    0.027647
      5          1           0        0.846110   -1.434007   -0.082358
      6          8           0       -0.673232    0.671446    0.050516
      7          8           0       -1.085505    1.910909   -0.610263
      8          1           0       -1.325238    1.583047   -1.495049
 ---------------------------------------------------------------------

 Alpha  occ. eigenvalues --  -20.53708 -20.52805 -11.24444 -11.17181  -1.47925
 Alpha  occ. eigenvalues --   -1.23907  -1.03256  -0.79979  -0.72186  -0.65995
 Alpha  occ. eigenvalues --   -0.64032  -0.60053  -0.55384  -0.49721  -0.48486
 Alpha  occ. eigenvalues --   -0.37102
 Alpha virt. eigenvalues --    0.17636   0.23945   0.27557   0.31465   0.33318
 Alpha virt. eigenvalues --    0.35773   0.49303   0.57146   0.89782   0.96612
 Alpha virt. eigenvalues --    0.99705   1.06105   1.10392   1.11702   1.23267

 Mulliken charges:
               1
     1  C    0.140460
     2  C   -0.497692
     3  H    0.258660
     4  H    0.228745
     5  H    0.240420
     6  O   -0.400738
     7  O   -0.381614
     8  H    0.411759
 Sum of Mulliken charges =   0.00000

 Dipole moment (field-independent basis, Debye):
    X=              1.2998    Y=             -0.4198    Z=             -1.9799  Tot=              2.4053
 Quadrupole moment (field-independent basis, Debye-Ang):
   XX=            -21.9371   YY=            -24.2238   ZZ=            -21.5079
   XY=              1.2209   XZ=              3.3147   YZ=             -2.4774

 Normal termination of Gaussian 09 at Fri Apr 12 15:28:14 2019.
