 Gaussian 09, Revision D.01,
 Gaussian 09:  AS64L-G09RevD.01 24-Apr-2013

 --------------------------------------------------------------------
 #p hf 3-21g scf=tight NoSymmetry guess=read opt=(tight,modredundant)
 --------------------------------------------------------------------

 -----------------------------------
 Geometry optimization at the 2D-PES
 -----------------------------------
 Symbolic Z-matrix:
 Charge =  0 Multiplicity = 1

 SCF Done:  E(RHF) =  -226.393028781     A.U. after   12 cycles
 SCF Done:  E(RHF) =  -226.393030528     A.U. after   11 cycles
 SCF Done:  E(RHF) =  -226.393031456     A.U. after   10 cycles
 SCF Done:  E(RHF) =  -226.393031482     A.U. after    7 cycles
 SCF Done:  E(RHF) =  -226.393031484     A.U. after    6 cycles
 Optimization completed.
    -- Stationary point found.

                          Input orientation:
 ---------------------------------------------------------------------
 Center     Atomic      Atomic             Coordinates (Angstroms)
 Number     Number       Type             X           Y           Z
 ---------------------------------------------------------------------
      1          6           0        0.724766    0.626516    0.043687
      2          6           0        1.370524   -0.510082    0.000649
      3          1           0        1.191456    1.584865    0.128191
      4          1           0        2.441132   -0.532766    0.010620
      5          1           0        0.845652   -1.441651   -0.059767
      6          8           0       -0.680466    0.667515   -0.023529
      7          8           0       -1.147531    0.833341    1.369894
      8          1           0       -2.062019    0.522100    1.258975
 ---------------------------------------------------------------------

 Alpha  occ. eigenvalues --  -20.52224 -20.51440 -11.23645 -11.17708  -1.45944
 Alpha  occ. eigenvalues --   -1.22955  -1.03102  -0.79163  -0.69113  -0.68258
 Alpha  occ. eigenvalues --   -0.63662  -0.58069  -0.55652  -0.50454  -0.43847
 Alpha  occ. eigenvalues --   -0.38439
 Alpha virt. eigenvalues --    0.15592   0.27629   0.29065   0.30890   0.31854
 Alpha virt. eigenvalues --    0.36432   0.49481   0.56857   0.89082   0.97519
 Alpha virt. eigenvalues --    0.99012   1.07042   1.10236   1.12459   1.23742

 Mulliken charges:
               1
     1  C    0.145730
     2  C   -0.455091
     3  H    0.239055
     4  H    0.227757
     5  H    0.241718
     6  O   -0.420588
     7  O   -0.393615
     8  H    0.415034
 Sum of Mulliken charges =   0.00000

 Dipole moment (field-independent basis, Debye):
    X=              0.1228    Y=             -0.8667    Z=              0.0701  Tot=              0.8782
 Quadrupole moment (field-independent basis, Debye-Ang):
   XX=            -16.3700   YY=            -23.0700   ZZ=            -26.2546
   XY=              0.9893   XZ=             -2.3392   YZ=             -0.6433

 Normal termination of Gaussian 09 at Fri Apr 12 16:28:42 2019.
