 Gaussian 09, Revision D.01,
 Gaussian 09:  AS64L-G09RevD.01 24-Apr-2013

 --------------------------------------------------------------------
 #p hf 3-21g scf=tight NoSymmetry guess=read opt=(tight,modredundant)
 --------------------------------------------------------------------

 -----------------------------------
 Geometry optimization at the 2D-PES
 -----------------------------------
 Symbolic Z-matrix:
 Charge =  0 Multiplicity = 1

 SCF Done:  E(RHF) =  -226.387993860     A.U. after   12 cycles
 SCF Done:  E(RHF) =  -226.388013128     A.U. after   12 cycles
 SCF Done:  E(RHF) =  -226.388028446     A.U. after   11 cycles
 SCF Done:  E(RHF) =  -226.388028539     A.U. after    9 cycles
 SCF Done:  E(RHF) =  -226.388028557     A.U. after    8 cycles
 SCF Done:  E(RHF) =  -226.388028559     A.U. after    6 cycles
 Optimization completed.
    -- Stationary point found.

                          Input orientation:
 ---------------------------------------------------------------------
 Center     Atomic      Atomic             Coordinates (Angstroms)
 Number     Number       Type             X           Y           Z
 ---------------------------------------------------------------------
      1          6           0        0.741202    0.586227    0.064206
      2          6           0        1.421635   -0.528097   -0.029899
      3          1           0        1.196563    1.553864    0.092421
      4          1           0        2.491332   -0.502819   -0.049394
      5          1           0        0.959405   -1.493966   -0.061975
      6          8           0       -0.660270    0.698818    0.039936
      7          8           0       -1.278364   -0.233810    0.982809
      8          1           0       -1.258043   -1.072964    0.490721
 ---------------------------------------------------------------------

 Alpha  occ. eigenvalues --  -20.53490 -20.52849 -11.24982 -11.18140  -1.47629
 Alpha  occ. eigenvalues --   -1.23815  -1.04408  -0.80129  -0.71928  -0.67381
 Alpha  occ. eigenvalues --   -0.65804  -0.57924  -0.55110  -0.50445  -0.48345
 Alpha  occ. eigenvalues --   -0.37870
 Alpha virt. eigenvalues --    0.15818   0.22889   0.28356   0.28978   0.34198
 Alpha virt. eigenvalues --    0.36802   0.50082   0.57231   0.88129   0.96239
 Alpha virt. eigenvalues --    0.98239   1.06009   1.09170   1.11304   1.25457

 Mulliken charges:
               1
     1  C    0.142809
     2  C   -0.487999
     3  H    0.257945
     4  H    0.235700
     5  H    0.213185
     6  O   -0.401668
     7  O   -0.366914
     8  H    0.406941
 Sum of Mulliken charges =   0.00000

 Dipole moment (field-independent basis, Debye):
    X=              1.8744    Y=             -1.8496    Z=             -0.7683  Tot=              2.7431
 Quadrupole moment (field-independent basis, Debye-Ang):
   XX=            -22.9687   YY=            -19.9003   ZZ=            -27.1945
   XY=              3.8495   XZ=              1.2862   YZ=             -0.2708

 Normal termination of Gaussian 09 at Fri Apr 12 17:13:16 2019.
