 Gaussian 09, Revision D.01,
 Gaussian 09:  AS64L-G09RevD.01 24-Apr-2013

 --------------------------------------------------------------------
 #p hf 3-21g scf=tight NoSymmetry guess=read opt=(tight,modredundant)
 --------------------------------------------------------------------

 -----------------------------------
 Geometry optimization at the 2D-PES
 -----------------------------------
 Symbolic Z-matrix:
 Charge =  0 Multiplicity = 1

 SCF Done:  E(RHF) =  -226.380960958     A.U. after   14 cycles
 SCF Done:  E(RHF) =  -226.380974361     A.U. after   12 cycles
 SCF Done:  E(RHF) =  -226.380985013     A.U. after   11 cycles
 SCF Done:  E(RHF) =  -226.380985151     A.U. after    8 cycles
 SCF Done:  E(RHF) =  -226.380985163     A.U. after    7 cycles
 SCF Done:  E(RHF) =  -226.380985164     A.U. after    6 cycles
 Optimization completed.
    -- Stationary point found.

                          Input orientation:
 ---------------------------------------------------------------------
 Center     Atomic      Atomic             Coordinates (Angstroms)
 Number     Number       Type             X           Y           Z
 ---------------------------------------------------------------------
      1          6           0        0.751909    0.619539    0.034863
      2          6           0        1.391427   -0.523093   -0.008899
      3          1           0        1.231277    1.576110    0.082762
      4          1           0        2.462117   -0.553083   -0.005898
      5          1           0        0.857605   -1.450293   -0.068384
      6          8           0       -0.657641    0.673189   -0.005886
      7          8           0       -1.209860    0.615267    1.368084
      8          1           0       -0.423142    0.554045    1.941523
 ---------------------------------------------------------------------

 Alpha  occ. eigenvalues --  -20.52687 -20.51776 -11.25080 -11.19746  -1.46173
 Alpha  occ. eigenvalues --   -1.23311  -1.05017  -0.81304  -0.71630  -0.67692
 Alpha  occ. eigenvalues --   -0.60171  -0.59029  -0.57157  -0.52625  -0.43798
 Alpha  occ. eigenvalues --   -0.40106
 Alpha virt. eigenvalues --    0.13431   0.26823   0.27360   0.29187   0.30643
 Alpha virt. eigenvalues --    0.36125   0.49179   0.55063   0.87271   0.96895
 Alpha virt. eigenvalues --    0.97165   1.04870   1.08426   1.11159   1.23874

 Mulliken charges:
               1
     1  C    0.059794
     2  C   -0.444260
     3  H    0.243884
     4  H    0.235745
     5  H    0.259595
     6  O   -0.377323
     7  O   -0.374998
     8  H    0.397564
 Sum of Mulliken charges =   0.00000

 Dipole moment (field-independent basis, Debye):
    X=              3.7279    Y=             -0.5293    Z=              1.2767  Tot=              3.9759
 Quadrupole moment (field-independent basis, Debye-Ang):
   XX=            -25.3109   YY=            -22.3052   ZZ=            -21.5834
   XY=              2.0084   XZ=              1.6572   YZ=              0.7737

 Normal termination of Gaussian 09 at Fri Apr 12 16:35:00 2019.
