 Gaussian 09, Revision D.01,
 Gaussian 09:  AS64L-G09RevD.01 24-Apr-2013

 --------------------------------------------------------------------
 #p hf 3-21g scf=tight NoSymmetry guess=read opt=(tight,modredundant)
 --------------------------------------------------------------------

 -----------------------------------
 Geometry optimization at the 2D-PES
 -----------------------------------
 Symbolic Z-matrix:
 Charge =  0 Multiplicity = 1

 SCF Done:  E(RHF) =  -226.395870204     A.U. after   14 cycles
 SCF Done:  E(RHF) =  -226.395883315     A.U. after   12 cycles
 SCF Done:  E(RHF) =  -226.395885278     A.U. after   10 cycles
 SCF Done:  E(RHF) =  -226.395885397     A.U. after    9 cycles
 SCF Done:  E(RHF) =  -226.395885412     A.U. after    8 cycles
 SCF Done:  E(RHF) =  -226.395885414     A.U. after    7 cycles
 Optimization completed.
    -- Stationary point found.

                          Input orientation:
 ---------------------------------------------------------------------
 Center     Atomic      Atomic             Coordinates (Angstroms)
 Number     Number       Type             X           Y           Z
 ---------------------------------------------------------------------
      1          6           0        0.719506    0.636852    0.025108
      2          6           0        1.365628   -0.501137   -0.019375
      3          1           0        1.175050    1.601417    0.078944
      4          1           0        2.435069   -0.515926    0.016453
      5          1           0        0.848414   -1.436770   -0.080711
      6          8           0       -0.678319    0.668956    0.053429
      7          8           0       -1.061684    2.017281   -0.384417
      8          1           0       -1.980747    1.842398   -0.646268
 ---------------------------------------------------------------------

 Alpha  occ. eigenvalues --  -20.53517 -20.52599 -11.24244 -11.16344  -1.47589
 Alpha  occ. eigenvalues --   -1.24037  -1.02613  -0.79793  -0.70621  -0.67071
 Alpha  occ. eigenvalues --   -0.63359  -0.60376  -0.55371  -0.50304  -0.48128
 Alpha  occ. eigenvalues --   -0.35823
 Alpha virt. eigenvalues --    0.18933   0.23427   0.27700   0.32108   0.33929
 Alpha virt. eigenvalues --    0.36059   0.50099   0.57721   0.90303   0.97376
 Alpha virt. eigenvalues --    1.00151   1.07115   1.10940   1.12420   1.23017

 Mulliken charges:
               1
     1  C    0.171991
     2  C   -0.508549
     3  H    0.262680
     4  H    0.226007
     5  H    0.236193
     6  O   -0.420783
     7  O   -0.390627
     8  H    0.423087
 Sum of Mulliken charges =   0.00000

 Dipole moment (field-independent basis, Debye):
    X=             -0.2351    Y=              0.0656    Z=             -0.6648  Tot=              0.7082
 Quadrupole moment (field-independent basis, Debye-Ang):
   XX=            -16.8813   YY=            -23.0708   ZZ=            -25.1732
   XY=             -2.0132   XZ=              2.3151   YZ=             -0.8492

 Normal termination of Gaussian 09 at Fri Apr 12 15:29:36 2019.
