 Gaussian 09, Revision D.01,
 Gaussian 09:  AS64L-G09RevD.01 24-Apr-2013

 --------------------------------------------------------------------
 #p hf 3-21g scf=tight NoSymmetry guess=read opt=(tight,modredundant)
 --------------------------------------------------------------------

 -----------------------------------
 Geometry optimization at the 2D-PES
 -----------------------------------
 Symbolic Z-matrix:
 Charge =  0 Multiplicity = 1

 SCF Done:  E(RHF) =  -226.397483819     A.U. after   13 cycles
 SCF Done:  E(RHF) =  -226.397490685     A.U. after   11 cycles
 SCF Done:  E(RHF) =  -226.397501408     A.U. after   11 cycles
 SCF Done:  E(RHF) =  -226.397501501     A.U. after    9 cycles
 SCF Done:  E(RHF) =  -226.397501508     A.U. after    8 cycles
 Optimization completed.
    -- Stationary point found.

                          Input orientation:
 ---------------------------------------------------------------------
 Center     Atomic      Atomic             Coordinates (Angstroms)
 Number     Number       Type             X           Y           Z
 ---------------------------------------------------------------------
      1          6           0        0.737701    0.569552    0.045327
      2          6           0        1.427937   -0.537550   -0.052406
      3          1           0        1.168072    1.547974    0.101284
      4          1           0        2.497098   -0.496896   -0.068106
      5          1           0        0.955990   -1.494704   -0.084554
      6          8           0       -0.652386    0.706474    0.051097
      7          8           0       -1.285912   -0.601336    0.167238
      8          1           0       -1.670221   -0.696262   -0.721729
 ---------------------------------------------------------------------

 Alpha  occ. eigenvalues --  -20.54206 -20.53168 -11.24560 -11.16211  -1.48402
 Alpha  occ. eigenvalues --   -1.24207  -1.03289  -0.79632  -0.70552  -0.69171
 Alpha  occ. eigenvalues --   -0.64899  -0.57449  -0.54027  -0.52221  -0.48763
 Alpha  occ. eigenvalues --   -0.36195
 Alpha virt. eigenvalues --    0.19528   0.22692   0.28765   0.29797   0.33521
 Alpha virt. eigenvalues --    0.37227   0.49661   0.58689   0.88883   0.96680
 Alpha virt. eigenvalues --    1.01458   1.07118   1.10268   1.12373   1.22671

 Mulliken charges:
               1
     1  C    0.148576
     2  C   -0.510895
     3  H    0.260344
     4  H    0.222022
     5  H    0.244555
     6  O   -0.407843
     7  O   -0.373539
     8  H    0.416779
 Sum of Mulliken charges =   0.00000

 Dipole moment (field-independent basis, Debye):
    X=              0.7455    Y=             -0.3650    Z=             -1.8318  Tot=              2.0110
 Quadrupole moment (field-independent basis, Debye-Ang):
   XX=            -20.7747   YY=            -22.1093   ZZ=            -24.5652
   XY=              2.6081   XZ=              3.3332   YZ=              1.5913

 Normal termination of Gaussian 09 at Fri Apr 12 17:51:15 2019.
