 Gaussian 09, Revision D.01,
 Gaussian 09:  AS64L-G09RevD.01 24-Apr-2013

 --------------------------------------------------------------------
 #p hf 3-21g scf=tight NoSymmetry guess=read opt=(tight,modredundant)
 --------------------------------------------------------------------

 -----------------------------------
 Geometry optimization at the 2D-PES
 -----------------------------------
 Symbolic Z-matrix:
 Charge =  0 Multiplicity = 1

 SCF Done:  E(RHF) =  -226.391537938     A.U. after   13 cycles
 SCF Done:  E(RHF) =  -226.391543875     A.U. after   11 cycles
 SCF Done:  E(RHF) =  -226.391546729     A.U. after   10 cycles
 SCF Done:  E(RHF) =  -226.391546790     A.U. after    8 cycles
 SCF Done:  E(RHF) =  -226.391546792     A.U. after    6 cycles
 SCF Done:  E(RHF) =  -226.391546793     A.U. after    6 cycles
 Optimization completed.
    -- Stationary point found.

                          Input orientation:
 ---------------------------------------------------------------------
 Center     Atomic      Atomic             Coordinates (Angstroms)
 Number     Number       Type             X           Y           Z
 ---------------------------------------------------------------------
      1          6           0        0.731408    0.610097    0.050368
      2          6           0        1.385575   -0.520454   -0.014872
      3          1           0        1.199621    1.570237    0.106079
      4          1           0        2.456240   -0.532016   -0.009219
      5          1           0        0.874481   -1.460657   -0.057074
      6          8           0       -0.674457    0.687629    0.003008
      7          8           0       -1.200065    0.129791    1.262829
      8          1           0       -1.964468   -0.357764    0.911711
 ---------------------------------------------------------------------

 Alpha  occ. eigenvalues --  -20.52306 -20.51776 -11.23740 -11.17616  -1.46189
 Alpha  occ. eigenvalues --   -1.23007  -1.03286  -0.79049  -0.69125  -0.68791
 Alpha  occ. eigenvalues --   -0.64251  -0.57596  -0.55044  -0.50541  -0.45253
 Alpha  occ. eigenvalues --   -0.37755
 Alpha virt. eigenvalues --    0.15434   0.26754   0.29454   0.30301   0.31795
 Alpha virt. eigenvalues --    0.36946   0.49857   0.56814   0.88776   0.97327
 Alpha virt. eigenvalues --    0.99128   1.06713   1.09982   1.12756   1.23099

 Mulliken charges:
               1
     1  C    0.140530
     2  C   -0.455746
     3  H    0.243031
     4  H    0.228179
     5  H    0.235965
     6  O   -0.420005
     7  O   -0.385019
     8  H    0.413063
 Sum of Mulliken charges =   0.00000

 Dipole moment (field-independent basis, Debye):
    X=              0.3991    Y=             -1.3390    Z=             -0.4226  Tot=              1.4597
 Quadrupole moment (field-independent basis, Debye-Ang):
   XX=            -17.5297   YY=            -22.0194   ZZ=            -27.2479
   XY=              3.3154   XZ=             -0.6219   YZ=             -0.6968

 Normal termination of Gaussian 09 at Fri Apr 12 16:55:03 2019.
