 Gaussian 09, Revision D.01,
 Gaussian 09:  AS64L-G09RevD.01 24-Apr-2013

 --------------------------------------------------------------------
 #p hf 3-21g scf=tight NoSymmetry guess=read opt=(tight,modredundant)
 --------------------------------------------------------------------

 -----------------------------------
 Geometry optimization at the 2D-PES
 -----------------------------------
 Symbolic Z-matrix:
 Charge =  0 Multiplicity = 1

 SCF Done:  E(RHF) =  -226.396991035     A.U. after   13 cycles
 SCF Done:  E(RHF) =  -226.396993653     A.U. after   12 cycles
 SCF Done:  E(RHF) =  -226.396997420     A.U. after   11 cycles
 SCF Done:  E(RHF) =  -226.396997456     A.U. after    8 cycles
 SCF Done:  E(RHF) =  -226.396997462     A.U. after    7 cycles
 Optimization completed.
    -- Stationary point found.

                          Input orientation:
 ---------------------------------------------------------------------
 Center     Atomic      Atomic             Coordinates (Angstroms)
 Number     Number       Type             X           Y           Z
 ---------------------------------------------------------------------
      1          6           0        0.734797    0.574391    0.056638
      2          6           0        1.418078   -0.536651   -0.042410
      3          1           0        1.171592    1.551463    0.087625
      4          1           0        2.487694   -0.502405   -0.062204
      5          1           0        0.938205   -1.490176   -0.080475
      6          8           0       -0.654602    0.710322    0.053736
      7          8           0       -1.267875   -0.572775    0.397582
      8          1           0       -1.986865   -0.255645    0.969195
 ---------------------------------------------------------------------

 Alpha  occ. eigenvalues --  -20.53710 -20.52638 -11.24132 -11.15888  -1.47744
 Alpha  occ. eigenvalues --   -1.23919  -1.02793  -0.79222  -0.71506  -0.65926
 Alpha  occ. eigenvalues --   -0.63539  -0.61360  -0.53977  -0.50139  -0.48222
 Alpha  occ. eigenvalues --   -0.35802
 Alpha virt. eigenvalues --    0.19307   0.23545   0.28779   0.30397   0.34011
 Alpha virt. eigenvalues --    0.37359   0.50107   0.58912   0.89213   0.97269
 Alpha virt. eigenvalues --    1.01155   1.07484   1.10760   1.13049   1.22874

 Mulliken charges:
               1
     1  C    0.150249
     2  C   -0.500808
     3  H    0.255110
     4  H    0.219110
     5  H    0.255132
     6  O   -0.418152
     7  O   -0.382906
     8  H    0.422266
 Sum of Mulliken charges =   0.00000

 Dipole moment (field-independent basis, Debye):
    X=              0.0804    Y=              0.4206    Z=              1.3442  Tot=              1.4107
 Quadrupole moment (field-independent basis, Debye-Ang):
   XX=            -17.9780   YY=            -22.9432   ZZ=            -23.9647
   XY=              1.1350   XZ=             -3.3157   YZ=              0.1683

 Normal termination of Gaussian 09 at Fri Apr 12 17:38:30 2019.
