 Gaussian 09, Revision D.01,
 Gaussian 09:  AS64L-G09RevD.01 24-Apr-2013

 --------------------------------------------------------------------
 #p hf 3-21g scf=tight NoSymmetry guess=read opt=(tight,modredundant)
 --------------------------------------------------------------------

 -----------------------------------
 Geometry optimization at the 2D-PES
 -----------------------------------
 Symbolic Z-matrix:
 Charge =  0 Multiplicity = 1

 SCF Done:  E(RHF) =  -226.380937176     A.U. after   13 cycles
 SCF Done:  E(RHF) =  -226.380941258     A.U. after   12 cycles
 SCF Done:  E(RHF) =  -226.380943697     A.U. after   11 cycles
 SCF Done:  E(RHF) =  -226.380943745     A.U. after    8 cycles
 SCF Done:  E(RHF) =  -226.380943751     A.U. after    7 cycles
 Optimization completed.
    -- Stationary point found.

                          Input orientation:
 ---------------------------------------------------------------------
 Center     Atomic      Atomic             Coordinates (Angstroms)
 Number     Number       Type             X           Y           Z
 ---------------------------------------------------------------------
      1          6           0        0.751552    0.615872    0.034749
      2          6           0        1.398069   -0.522650   -0.015449
      3          1           0        1.225983    1.574949    0.077170
      4          1           0        2.468899   -0.545375   -0.012138
      5          1           0        0.871154   -1.454025   -0.073212
      6          8           0       -0.658443    0.675672    0.002540
      7          8           0       -1.219569    0.377546    1.340084
      8          1           0       -0.443005    0.377043    1.930397
 ---------------------------------------------------------------------

 Alpha  occ. eigenvalues --  -20.52658 -20.51831 -11.25075 -11.19648  -1.46204
 Alpha  occ. eigenvalues --   -1.23275  -1.05021  -0.81251  -0.71414  -0.67956
 Alpha  occ. eigenvalues --   -0.59746  -0.59200  -0.57501  -0.52400  -0.44063
 Alpha  occ. eigenvalues --   -0.39856
 Alpha virt. eigenvalues --    0.13460   0.26780   0.27428   0.28985   0.30642
 Alpha virt. eigenvalues --    0.36362   0.49452   0.55025   0.87205   0.97016
 Alpha virt. eigenvalues --    0.97148   1.04800   1.08407   1.11042   1.23830

 Mulliken charges:
               1
     1  C    0.061556
     2  C   -0.447196
     3  H    0.245395
     4  H    0.235609
     5  H    0.259724
     6  O   -0.378877
     7  O   -0.373656
     8  H    0.397444
 Sum of Mulliken charges =   0.00000

 Dipole moment (field-independent basis, Debye):
    X=              3.6974    Y=             -0.4111    Z=              1.3151  Tot=              3.9458
 Quadrupole moment (field-independent basis, Debye-Ang):
   XX=            -25.3331   YY=            -22.1813   ZZ=            -21.4957
   XY=              1.6047   XZ=              1.5425   YZ=              0.7516

 Normal termination of Gaussian 09 at Fri Apr 12 16:48:54 2019.
