 Gaussian 09, Revision D.01,
 Gaussian 09:  AS64L-G09RevD.01 24-Apr-2013

 --------------------------------------------------------------------
 #p hf 3-21g scf=tight NoSymmetry guess=read opt=(tight,modredundant)
 --------------------------------------------------------------------

 -----------------------------------
 Geometry optimization at the 2D-PES
 -----------------------------------
 Symbolic Z-matrix:
 Charge =  0 Multiplicity = 1

 SCF Done:  E(RHF) =  -226.389301360     A.U. after   13 cycles
 SCF Done:  E(RHF) =  -226.389308186     A.U. after   12 cycles
 SCF Done:  E(RHF) =  -226.389315176     A.U. after   10 cycles
 SCF Done:  E(RHF) =  -226.389315206     A.U. after    7 cycles
 SCF Done:  E(RHF) =  -226.389315209     A.U. after    7 cycles
 Optimization completed.
    -- Stationary point found.

                          Input orientation:
 ---------------------------------------------------------------------
 Center     Atomic      Atomic             Coordinates (Angstroms)
 Number     Number       Type             X           Y           Z
 ---------------------------------------------------------------------
      1          6           0        0.746237    0.597648    0.057028
      2          6           0        1.407862   -0.528080   -0.025400
      3          1           0        1.201485    1.566454    0.076636
      4          1           0        2.478479   -0.528923   -0.036136
      5          1           0        0.897820   -1.468691   -0.056853
      6          8           0       -0.661026    0.699165    0.030189
      7          8           0       -1.245253   -0.238610    0.993558
      8          1           0       -0.995219    0.160639    1.846946
 ---------------------------------------------------------------------

 Alpha  occ. eigenvalues --  -20.53170 -20.52460 -11.24403 -11.17843  -1.47227
 Alpha  occ. eigenvalues --   -1.23295  -1.03945  -0.80408  -0.69610  -0.69042
 Alpha  occ. eigenvalues --   -0.62138  -0.59339  -0.56483  -0.49624  -0.47044
 Alpha  occ. eigenvalues --   -0.37891
 Alpha virt. eigenvalues --    0.15569   0.25738   0.28500   0.29250   0.32067
 Alpha virt. eigenvalues --    0.36898   0.49682   0.56753   0.87900   0.96581
 Alpha virt. eigenvalues --    0.99157   1.06291   1.09585   1.10892   1.24330

 Mulliken charges:
               1
     1  C    0.094677
     2  C   -0.467460
     3  H    0.249092
     4  H    0.227629
     5  H    0.257726
     6  O   -0.391012
     7  O   -0.373818
     8  H    0.403167
 Sum of Mulliken charges =   0.00000

 Dipole moment (field-independent basis, Debye):
    X=              2.4268    Y=              0.4510    Z=              1.9342  Tot=              3.1359
 Quadrupole moment (field-independent basis, Debye-Ang):
   XX=            -24.1673   YY=            -22.3668   ZZ=            -20.3368
   XY=              0.2930   XZ=             -1.3882   YZ=              1.4396

 Normal termination of Gaussian 09 at Fri Apr 12 17:07:49 2019.
