 Gaussian 09, Revision D.01,
 Gaussian 09:  AS64L-G09RevD.01 24-Apr-2013

 --------------------------------------------------------------------
 #p hf 3-21g scf=tight NoSymmetry guess=read opt=(tight,modredundant)
 --------------------------------------------------------------------

 -----------------------------------
 Geometry optimization at the 2D-PES
 -----------------------------------
 Symbolic Z-matrix:
 Charge =  0 Multiplicity = 1

 SCF Done:  E(RHF) =  -226.381170562     A.U. after   12 cycles
 SCF Done:  E(RHF) =  -226.381206406     A.U. after   12 cycles
 SCF Done:  E(RHF) =  -226.381215525     A.U. after   12 cycles
 SCF Done:  E(RHF) =  -226.381216536     A.U. after   11 cycles
 SCF Done:  E(RHF) =  -226.381216547     A.U. after    8 cycles
 SCF Done:  E(RHF) =  -226.381216549     A.U. after    6 cycles
 Optimization completed.
    -- Stationary point found.

                          Input orientation:
 ---------------------------------------------------------------------
 Center     Atomic      Atomic             Coordinates (Angstroms)
 Number     Number       Type             X           Y           Z
 ---------------------------------------------------------------------
      1          6           0        0.741961    0.570419    0.011939
      2          6           0        1.458296   -0.528113    0.022973
      3          1           0        1.173959    1.546444    0.084730
      4          1           0        2.524283   -0.459743    0.079542
      5          1           0        1.051188   -1.519288   -0.006863
      6          8           0       -0.645798    0.696560   -0.030518
      7          8           0       -1.344077   -0.385370   -0.728062
      8          1           0       -0.718394   -1.128518   -0.740933
 ---------------------------------------------------------------------

 Alpha  occ. eigenvalues --  -20.54391 -20.53175 -11.26437 -11.18635  -1.48206
 Alpha  occ. eigenvalues --   -1.24849  -1.05468  -0.81379  -0.73492  -0.68031
 Alpha  occ. eigenvalues --   -0.64101  -0.58962  -0.54747  -0.53875  -0.48552
 Alpha  occ. eigenvalues --   -0.37623
 Alpha virt. eigenvalues --    0.16479   0.21577   0.26981   0.27660   0.35474
 Alpha virt. eigenvalues --    0.36882   0.49699   0.59533   0.87820   0.95222
 Alpha virt. eigenvalues --    1.01062   1.05275   1.07870   1.10797   1.23922

 Mulliken charges:
               1
     1  C    0.144849
     2  C   -0.529648
     3  H    0.271315
     4  H    0.243384
     5  H    0.210275
     6  O   -0.390925
     7  O   -0.362820
     8  H    0.413571
 Sum of Mulliken charges =   0.00000

 Dipole moment (field-independent basis, Debye):
    X=              2.9655    Y=             -1.4591    Z=             -0.0682  Tot=              3.3057
 Quadrupole moment (field-independent basis, Debye-Ang):
   XX=            -25.5639   YY=            -19.8216   ZZ=            -25.7513
   XY=              2.3255   XZ=             -0.6328   YZ=              1.3186

 Normal termination of Gaussian 09 at Fri Apr 12 14:55:44 2019.
