 Gaussian 09, Revision D.01,
 Gaussian 09:  AS64L-G09RevD.01 24-Apr-2013

 --------------------------------------------------------------------
 #p hf 3-21g scf=tight NoSymmetry guess=read opt=(tight,modredundant)
 --------------------------------------------------------------------

 -----------------------------------
 Geometry optimization at the 2D-PES
 -----------------------------------
 Symbolic Z-matrix:
 Charge =  0 Multiplicity = 1

 SCF Done:  E(RHF) =  -226.388766546     A.U. after   12 cycles
 SCF Done:  E(RHF) =  -226.388791639     A.U. after   13 cycles
 SCF Done:  E(RHF) =  -226.388873054     A.U. after   12 cycles
 SCF Done:  E(RHF) =  -226.388873873     A.U. after   10 cycles
 SCF Done:  E(RHF) =  -226.388874008     A.U. after    9 cycles
 SCF Done:  E(RHF) =  -226.388874019     A.U. after    8 cycles
 SCF Done:  E(RHF) =  -226.388874020     A.U. after    6 cycles
 Optimization completed.
    -- Stationary point found.

                          Input orientation:
 ---------------------------------------------------------------------
 Center     Atomic      Atomic             Coordinates (Angstroms)
 Number     Number       Type             X           Y           Z
 ---------------------------------------------------------------------
      1          6           0        0.742909    0.569213    0.018147
      2          6           0        1.444246   -0.537303   -0.045984
      3          1           0        1.173505    1.546236    0.085391
      4          1           0        2.512467   -0.488370   -0.025276
      5          1           0        1.000241   -1.502585   -0.170971
      6          8           0       -0.642752    0.696729    0.038754
      7          8           0       -1.321228   -0.583235    0.213910
      8          1           0       -0.767199   -1.046222    0.871703
 ---------------------------------------------------------------------

 Alpha  occ. eigenvalues --  -20.54850 -20.53486 -11.26170 -11.17910  -1.48944
 Alpha  occ. eigenvalues --   -1.24786  -1.05023  -0.81226  -0.72640  -0.68561
 Alpha  occ. eigenvalues --   -0.64909  -0.57560  -0.55655  -0.53627  -0.48878
 Alpha  occ. eigenvalues --   -0.37425
 Alpha virt. eigenvalues --    0.17952   0.21967   0.27631   0.28614   0.32962
 Alpha virt. eigenvalues --    0.36628   0.49282   0.58205   0.87847   0.96016
 Alpha virt. eigenvalues --    1.00607   1.05483   1.08359   1.11098   1.23919

 Mulliken charges:
               1
     1  C    0.142493
     2  C   -0.539198
     3  H    0.271261
     4  H    0.235719
     5  H    0.230611
     6  O   -0.388314
     7  O   -0.362080
     8  H    0.409508
 Sum of Mulliken charges =   0.00000

 Dipole moment (field-independent basis, Debye):
    X=              2.7200    Y=             -0.8953    Z=              1.3118  Tot=              3.1497
 Quadrupole moment (field-independent basis, Debye-Ang):
   XX=            -25.4797   YY=            -20.6695   ZZ=            -24.2304
   XY=              1.8261   XZ=             -0.7748   YZ=             -1.4405

 Normal termination of Gaussian 09 at Fri Apr 12 17:45:12 2019.
