 Gaussian 09, Revision D.01,
 Gaussian 09:  AS64L-G09RevD.01 24-Apr-2013

 --------------------------------------------------------------------
 #p hf 3-21g scf=tight NoSymmetry guess=read opt=(tight,modredundant)
 --------------------------------------------------------------------

 -----------------------------------
 Geometry optimization at the 2D-PES
 -----------------------------------
 Symbolic Z-matrix:
 Charge =  0 Multiplicity = 1

 SCF Done:  E(RHF) =  -226.383320299     A.U. after   13 cycles
 SCF Done:  E(RHF) =  -226.383348428     A.U. after   13 cycles
 SCF Done:  E(RHF) =  -226.383374858     A.U. after   12 cycles
 SCF Done:  E(RHF) =  -226.383375083     A.U. after   10 cycles
 SCF Done:  E(RHF) =  -226.383375131     A.U. after    9 cycles
 SCF Done:  E(RHF) =  -226.383375133     A.U. after    7 cycles
 Optimization completed.
    -- Stationary point found.

                          Input orientation:
 ---------------------------------------------------------------------
 Center     Atomic      Atomic             Coordinates (Angstroms)
 Number     Number       Type             X           Y           Z
 ---------------------------------------------------------------------
      1          6           0        0.754449    0.634006    0.022250
      2          6           0        1.381073   -0.514423   -0.009062
      3          1           0        1.244992    1.581461    0.118142
      4          1           0        2.449961   -0.549219    0.030251
      5          1           0        0.844429   -1.438982   -0.069689
      6          8           0       -0.647891    0.688399    0.029130
      7          8           0       -1.111929    2.062867   -0.172627
      8          1           0       -0.507942    2.423636   -0.847641
 ---------------------------------------------------------------------

 Alpha  occ. eigenvalues --  -20.54142 -20.53307 -11.25531 -11.17660  -1.48192
 Alpha  occ. eigenvalues --   -1.24469  -1.04020  -0.81609  -0.72198  -0.66505
 Alpha  occ. eigenvalues --   -0.64791  -0.58372  -0.54818  -0.53405  -0.48624
 Alpha  occ. eigenvalues --   -0.36795
 Alpha virt. eigenvalues --    0.17008   0.22453   0.25527   0.31136   0.33551
 Alpha virt. eigenvalues --    0.35403   0.50084   0.56478   0.88825   0.96257
 Alpha virt. eigenvalues --    0.99106   1.06112   1.09921   1.10825   1.24013

 Mulliken charges:
               1
     1  C    0.118175
     2  C   -0.493653
     3  H    0.241408
     4  H    0.230983
     5  H    0.249142
     6  O   -0.382463
     7  O   -0.364176
     8  H    0.400583
 Sum of Mulliken charges =   0.00000

 Dipole moment (field-independent basis, Debye):
    X=              3.0096    Y=              0.8839    Z=             -1.3673  Tot=              3.4217
 Quadrupole moment (field-independent basis, Debye-Ang):
   XX=            -25.0239   YY=            -18.3933   ZZ=            -24.2518
   XY=              3.3272   XZ=              0.7241   YZ=             -3.4595

 Normal termination of Gaussian 09 at Fri Apr 12 15:34:38 2019.
