 Gaussian 09, Revision D.01,
 Gaussian 09:  AS64L-G09RevD.01 24-Apr-2013

 --------------------------------------------------------------------
 #p hf 3-21g scf=tight NoSymmetry guess=read opt=(tight,modredundant)
 --------------------------------------------------------------------

 -----------------------------------
 Geometry optimization at the 2D-PES
 -----------------------------------
 Symbolic Z-matrix:
 Charge =  0 Multiplicity = 1

 SCF Done:  E(RHF) =  -226.395218826     A.U. after   13 cycles
 SCF Done:  E(RHF) =  -226.395222606     A.U. after   11 cycles
 SCF Done:  E(RHF) =  -226.395225589     A.U. after   10 cycles
 SCF Done:  E(RHF) =  -226.395225648     A.U. after    8 cycles
 SCF Done:  E(RHF) =  -226.395225650     A.U. after    6 cycles
 Optimization completed.
    -- Stationary point found.

                          Input orientation:
 ---------------------------------------------------------------------
 Center     Atomic      Atomic             Coordinates (Angstroms)
 Number     Number       Type             X           Y           Z
 ---------------------------------------------------------------------
      1          6           0        0.733084    0.589242    0.060959
      2          6           0        1.402695   -0.530776   -0.032679
      3          1           0        1.183530    1.559506    0.092428
      4          1           0        2.472903   -0.516856   -0.046480
      5          1           0        0.907892   -1.478288   -0.051964
      6          8           0       -0.661401    0.709421    0.036385
      7          8           0       -1.236612   -0.397769    0.812109
      8          1           0       -2.137090   -0.389083    0.445852
 ---------------------------------------------------------------------

 Alpha  occ. eigenvalues --  -20.53070 -20.52344 -11.23902 -11.16394  -1.47025
 Alpha  occ. eigenvalues --   -1.23579  -1.02854  -0.78881  -0.70933  -0.66850
 Alpha  occ. eigenvalues --   -0.64480  -0.58566  -0.53789  -0.51853  -0.46769
 Alpha  occ. eigenvalues --   -0.36092
 Alpha virt. eigenvalues --    0.17451   0.25341   0.29102   0.30389   0.33202
 Alpha virt. eigenvalues --    0.37341   0.50222   0.58047   0.89186   0.97459
 Alpha virt. eigenvalues --    1.00658   1.07298   1.10563   1.12756   1.23039

 Mulliken charges:
               1
     1  C    0.148144
     2  C   -0.482792
     3  H    0.252017
     4  H    0.221885
     5  H    0.247225
     6  O   -0.422088
     7  O   -0.383648
     8  H    0.419257
 Sum of Mulliken charges =   0.00000

 Dipole moment (field-independent basis, Debye):
    X=             -0.1590    Y=             -0.2815    Z=             -0.5606  Tot=              0.6472
 Quadrupole moment (field-independent basis, Debye-Ang):
   XX=            -16.2443   YY=            -22.3787   ZZ=            -26.7123
   XY=              2.3663   XZ=              0.1484   YZ=              0.5574

 Normal termination of Gaussian 09 at Fri Apr 12 17:17:12 2019.
