 Gaussian 09, Revision D.01,
 Gaussian 09:  AS64L-G09RevD.01 24-Apr-2013

 --------------------------------------------------------------------
 #p hf 3-21g scf=tight NoSymmetry guess=read opt=(tight,modredundant)
 --------------------------------------------------------------------

 -----------------------------------
 Geometry optimization at the 2D-PES
 -----------------------------------
 Symbolic Z-matrix:
 Charge =  0 Multiplicity = 1

 SCF Done:  E(RHF) =  -226.381807735     A.U. after   13 cycles
 SCF Done:  E(RHF) =  -226.381816733     A.U. after   12 cycles
 SCF Done:  E(RHF) =  -226.381823668     A.U. after   11 cycles
 SCF Done:  E(RHF) =  -226.381823812     A.U. after    9 cycles
 SCF Done:  E(RHF) =  -226.381823834     A.U. after    8 cycles
 SCF Done:  E(RHF) =  -226.381823835     A.U. after    6 cycles
 Optimization completed.
    -- Stationary point found.

                          Input orientation:
 ---------------------------------------------------------------------
 Center     Atomic      Atomic             Coordinates (Angstroms)
 Number     Number       Type             X           Y           Z
 ---------------------------------------------------------------------
      1          6           0        0.750781    0.605078    0.038400
      2          6           0        1.411566   -0.525904   -0.024782
      3          1           0        1.213403    1.569481    0.069800
      4          1           0        2.482100   -0.531954   -0.023015
      5          1           0        0.902544   -1.467300   -0.088470
      6          8           0       -0.654250    0.683450    0.021950
      7          8           0       -1.246631   -0.049011    1.159413
      8          1           0       -0.480225   -0.265172    1.723768
 ---------------------------------------------------------------------

 Alpha  occ. eigenvalues --  -20.53049 -20.52240 -11.25543 -11.19346  -1.46771
 Alpha  occ. eigenvalues --   -1.23603  -1.05225  -0.81206  -0.71892  -0.68051
 Alpha  occ. eigenvalues --   -0.60890  -0.59417  -0.56583  -0.52937  -0.45521
 Alpha  occ. eigenvalues --   -0.38915
 Alpha virt. eigenvalues --    0.14116   0.25422   0.27678   0.28880   0.30539
 Alpha virt. eigenvalues --    0.36648   0.49880   0.55211   0.87297   0.96375
 Alpha virt. eigenvalues --    0.98664   1.04432   1.08151   1.10961   1.23237

 Mulliken charges:
               1
     1  C    0.084985
     2  C   -0.478353
     3  H    0.255246
     4  H    0.237197
     5  H    0.253707
     6  O   -0.382981
     7  O   -0.369509
     8  H    0.399708
 Sum of Mulliken charges =   0.00000

 Dipole moment (field-independent basis, Debye):
    X=              3.5619    Y=             -0.7090    Z=              1.2542  Tot=              3.8422
 Quadrupole moment (field-independent basis, Debye-Ang):
   XX=            -25.4686   YY=            -22.0435   ZZ=            -22.1420
   XY=              1.3690   XZ=              1.1807   YZ=             -0.6018

 Normal termination of Gaussian 09 at Fri Apr 12 17:05:04 2019.
