 Gaussian 09, Revision D.01,
 Gaussian 09:  AS64L-G09RevD.01 24-Apr-2013

 --------------------------------------------------------------------
 #p hf 3-21g scf=tight NoSymmetry guess=read opt=(tight,modredundant)
 --------------------------------------------------------------------

 -----------------------------------
 Geometry optimization at the 2D-PES
 -----------------------------------
 Symbolic Z-matrix:
 Charge =  0 Multiplicity = 1

 SCF Done:  E(RHF) =  -226.391594586     A.U. after   13 cycles
 SCF Done:  E(RHF) =  -226.391600527     A.U. after   11 cycles
 SCF Done:  E(RHF) =  -226.391606898     A.U. after   10 cycles
 SCF Done:  E(RHF) =  -226.391606921     A.U. after    9 cycles
 SCF Done:  E(RHF) =  -226.391606932     A.U. after    8 cycles
 Optimization completed.
    -- Stationary point found.

                          Input orientation:
 ---------------------------------------------------------------------
 Center     Atomic      Atomic             Coordinates (Angstroms)
 Number     Number       Type             X           Y           Z
 ---------------------------------------------------------------------
      1          6           0        0.724130    0.634346    0.031485
      2          6           0        1.372093   -0.502093   -0.023324
      3          1           0        1.182783    1.599275    0.056615
      4          1           0        2.442463   -0.524144   -0.002746
      5          1           0        0.849047   -1.436947   -0.055031
      6          8           0       -0.686600    0.655929    0.052054
      7          8           0       -1.112596    1.197754   -1.247257
      8          1           0       -1.028781    0.414692   -1.821627
 ---------------------------------------------------------------------

 Alpha  occ. eigenvalues --  -20.53126 -20.52225 -11.24567 -11.18592  -1.47161
 Alpha  occ. eigenvalues --   -1.23334  -1.04124  -0.80173  -0.72294  -0.65520
 Alpha  occ. eigenvalues --   -0.63832  -0.60302  -0.56056  -0.48852  -0.46617
 Alpha  occ. eigenvalues --   -0.39262
 Alpha virt. eigenvalues --    0.15428   0.25598   0.27804   0.30655   0.31750
 Alpha virt. eigenvalues --    0.35774   0.48803   0.55984   0.88440   0.96423
 Alpha virt. eigenvalues --    0.98246   1.06185   1.09364   1.10989   1.24316

 Mulliken charges:
               1
     1  C    0.117998
     2  C   -0.471605
     3  H    0.248889
     4  H    0.232971
     5  H    0.241739
     6  O   -0.391910
     7  O   -0.380574
     8  H    0.402493
 Sum of Mulliken charges =   0.00000

 Dipole moment (field-independent basis, Debye):
    X=              2.1816    Y=             -1.6546    Z=             -1.3361  Tot=              3.0467
 Quadrupole moment (field-independent basis, Debye-Ang):
   XX=            -23.4173   YY=            -24.5418   ZZ=            -21.8745
   XY=              3.1014   XZ=              1.3433   YZ=              1.6990

 Normal termination of Gaussian 09 at Fri Apr 12 15:12:44 2019.
