 Gaussian 09, Revision D.01,
 Gaussian 09:  AS64L-G09RevD.01 24-Apr-2013

 --------------------------------------------------------------------
 #p hf 3-21g scf=tight NoSymmetry guess=read opt=(tight,modredundant)
 --------------------------------------------------------------------

 -----------------------------------
 Geometry optimization at the 2D-PES
 -----------------------------------
 Symbolic Z-matrix:
 Charge =  0 Multiplicity = 1

 SCF Done:  E(RHF) =  -226.395129369     A.U. after   13 cycles
 SCF Done:  E(RHF) =  -226.395132029     A.U. after   11 cycles
 SCF Done:  E(RHF) =  -226.395133417     A.U. after   10 cycles
 SCF Done:  E(RHF) =  -226.395133446     A.U. after    7 cycles
 SCF Done:  E(RHF) =  -226.395133449     A.U. after    7 cycles
 Optimization completed.
    -- Stationary point found.

                          Input orientation:
 ---------------------------------------------------------------------
 Center     Atomic      Atomic             Coordinates (Angstroms)
 Number     Number       Type             X           Y           Z
 ---------------------------------------------------------------------
      1          6           0        0.726771    0.632654    0.052740
      2          6           0        1.368531   -0.506895    0.005749
      3          1           0        1.187993    1.593782    0.124710
      4          1           0        2.438769   -0.529795   -0.006125
      5          1           0        0.841823   -1.437946   -0.045411
      6          8           0       -0.673978    0.669860   -0.024544
      7          8           0       -1.111815    1.510214    1.103735
      8          1           0       -1.892701    1.005056    1.386392
 ---------------------------------------------------------------------

 Alpha  occ. eigenvalues --  -20.53000 -20.52017 -11.24065 -11.17260  -1.46896
 Alpha  occ. eigenvalues --   -1.23525  -1.03024  -0.79572  -0.70673  -0.66976
 Alpha  occ. eigenvalues --   -0.62566  -0.60824  -0.55711  -0.49569  -0.46217
 Alpha  occ. eigenvalues --   -0.37458
 Alpha virt. eigenvalues --    0.16984   0.25697   0.28259   0.31468   0.32766
 Alpha virt. eigenvalues --    0.35991   0.49518   0.57066   0.89646   0.97204
 Alpha virt. eigenvalues --    0.99386   1.07152   1.10492   1.12781   1.22486

 Mulliken charges:
               1
     1  C    0.158607
     2  C   -0.484468
     3  H    0.250623
     4  H    0.227594
     5  H    0.238574
     6  O   -0.415544
     7  O   -0.393212
     8  H    0.417826
 Sum of Mulliken charges =   0.00000

 Dipole moment (field-independent basis, Debye):
    X=              0.2412    Y=             -0.9868    Z=              0.8744  Tot=              1.3403
 Quadrupole moment (field-independent basis, Debye-Ang):
   XX=            -17.8142   YY=            -24.7006   ZZ=            -24.0989
   XY=              0.8840   XZ=             -3.3338   YZ=             -0.2196

 Normal termination of Gaussian 09 at Fri Apr 12 16:12:59 2019.
