 Gaussian 09, Revision D.01,
 Gaussian 09:  AS64L-G09RevD.01 24-Apr-2013

 --------------------------------------------------------------------
 #p hf 3-21g scf=tight NoSymmetry guess=read opt=(tight,modredundant)
 --------------------------------------------------------------------

 -----------------------------------
 Geometry optimization at the 2D-PES
 -----------------------------------
 Symbolic Z-matrix:
 Charge =  0 Multiplicity = 1

 SCF Done:  E(RHF) =  -226.381415242     A.U. after   13 cycles
 SCF Done:  E(RHF) =  -226.381430831     A.U. after   12 cycles
 SCF Done:  E(RHF) =  -226.381437347     A.U. after   11 cycles
 SCF Done:  E(RHF) =  -226.381437534     A.U. after    9 cycles
 SCF Done:  E(RHF) =  -226.381437537     A.U. after    7 cycles
 SCF Done:  E(RHF) =  -226.381437537     A.U. after    6 cycles
 Optimization completed.
    -- Stationary point found.

                          Input orientation:
 ---------------------------------------------------------------------
 Center     Atomic      Atomic             Coordinates (Angstroms)
 Number     Number       Type             X           Y           Z
 ---------------------------------------------------------------------
      1          6           0        0.739327    0.594987    0.019145
      2          6           0        1.427212   -0.521408    0.010483
      3          1           0        1.190279    1.562805    0.084716
      4          1           0        2.496117   -0.492825    0.048962
      5          1           0        0.970248   -1.492080   -0.007418
      6          8           0       -0.660573    0.689508   -0.009831
      7          8           0       -1.268177   -0.117353   -1.077706
      8          1           0       -0.658387   -0.866702   -1.192779
 ---------------------------------------------------------------------

 Alpha  occ. eigenvalues --  -20.53569 -20.52731 -11.26002 -11.19106  -1.47425
 Alpha  occ. eigenvalues --   -1.24126  -1.05419  -0.81068  -0.73112  -0.67597
 Alpha  occ. eigenvalues --   -0.63270  -0.59326  -0.55399  -0.52921  -0.47130
 Alpha  occ. eigenvalues --   -0.38364
 Alpha virt. eigenvalues --    0.14889   0.22748   0.27534   0.28561   0.33621
 Alpha virt. eigenvalues --    0.36664   0.50101   0.56873   0.87552   0.95415
 Alpha virt. eigenvalues --    1.00330   1.05126   1.08164   1.10938   1.23877

 Mulliken charges:
               1
     1  C    0.131447
     2  C   -0.511302
     3  H    0.263213
     4  H    0.242484
     5  H    0.223250
     6  O   -0.391007
     7  O   -0.364464
     8  H    0.406379
 Sum of Mulliken charges =   0.00000

 Dipole moment (field-independent basis, Debye):
    X=              3.1211    Y=             -1.5634    Z=             -0.3352  Tot=              3.5068
 Quadrupole moment (field-independent basis, Debye-Ang):
   XX=            -25.2348   YY=            -20.5784   ZZ=            -25.1300
   XY=              2.3736   XZ=             -0.8836   YZ=              2.0044

 Normal termination of Gaussian 09 at Fri Apr 12 14:51:48 2019.
