 Gaussian 09, Revision D.01,
 Gaussian 09:  AS64L-G09RevD.01 24-Apr-2013

 --------------------------------------------------------------------
 #p hf 3-21g scf=tight NoSymmetry guess=read opt=(tight,modredundant)
 --------------------------------------------------------------------

 -----------------------------------
 Geometry optimization at the 2D-PES
 -----------------------------------
 Symbolic Z-matrix:
 Charge =  0 Multiplicity = 1

 SCF Done:  E(RHF) =  -226.382323767     A.U. after   13 cycles
 SCF Done:  E(RHF) =  -226.382329169     A.U. after   12 cycles
 SCF Done:  E(RHF) =  -226.382336101     A.U. after   11 cycles
 SCF Done:  E(RHF) =  -226.382336119     A.U. after    8 cycles
 SCF Done:  E(RHF) =  -226.382336120     A.U. after    6 cycles
 Optimization completed.
    -- Stationary point found.

                          Input orientation:
 ---------------------------------------------------------------------
 Center     Atomic      Atomic             Coordinates (Angstroms)
 Number     Number       Type             X           Y           Z
 ---------------------------------------------------------------------
      1          6           0        0.760399    0.627173    0.060042
      2          6           0        1.384739   -0.520763    0.003012
      3          1           0        1.259357    1.577577    0.082388
      4          1           0        2.453882   -0.562740   -0.034762
      5          1           0        0.836982   -1.440203   -0.025909
      6          8           0       -0.640246    0.692820   -0.014106
      7          8           0       -1.177289    1.515429    1.083899
      8          1           0       -0.476014    2.167335    1.269838
 ---------------------------------------------------------------------

 Alpha  occ. eigenvalues --  -20.53563 -20.52464 -11.25278 -11.18621  -1.47180
 Alpha  occ. eigenvalues --   -1.23997  -1.04329  -0.81766  -0.71049  -0.68177
 Alpha  occ. eigenvalues --   -0.62299  -0.58546  -0.56631  -0.51776  -0.46781
 Alpha  occ. eigenvalues --   -0.38133
 Alpha virt. eigenvalues --    0.15227   0.24962   0.25302   0.30466   0.33421
 Alpha virt. eigenvalues --    0.35165   0.50069   0.55913   0.88344   0.95925
 Alpha virt. eigenvalues --    0.99153   1.05807   1.09645   1.10892   1.24110

 Mulliken charges:
               1
     1  C    0.101965
     2  C   -0.462751
     3  H    0.224350
     4  H    0.231652
     5  H    0.256557
     6  O   -0.378176
     7  O   -0.369830
     8  H    0.396233
 Sum of Mulliken charges =   0.00000

 Dipole moment (field-independent basis, Debye):
    X=              3.3692    Y=              1.0345    Z=              0.5256  Tot=              3.5634
 Quadrupole moment (field-independent basis, Debye-Ang):
   XX=            -25.1697   YY=            -17.1194   ZZ=            -24.8219
   XY=              2.5366   XZ=              1.1982   YZ=              2.6330

 Normal termination of Gaussian 09 at Fri Apr 12 16:07:39 2019.
