 Gaussian 09, Revision D.01,
 Gaussian 09:  AS64L-G09RevD.01 24-Apr-2013

 --------------------------------------------------------------------
 #p hf 3-21g scf=tight NoSymmetry guess=read opt=(tight,modredundant)
 --------------------------------------------------------------------

 -----------------------------------
 Geometry optimization at the 2D-PES
 -----------------------------------
 Symbolic Z-matrix:
 Charge =  0 Multiplicity = 1

 SCF Done:  E(RHF) =  -226.384465898     A.U. after   13 cycles
 SCF Done:  E(RHF) =  -226.384472850     A.U. after   12 cycles
 SCF Done:  E(RHF) =  -226.384481457     A.U. after   10 cycles
 SCF Done:  E(RHF) =  -226.384481484     A.U. after    9 cycles
 SCF Done:  E(RHF) =  -226.384481488     A.U. after    7 cycles
 Optimization completed.
    -- Stationary point found.

                          Input orientation:
 ---------------------------------------------------------------------
 Center     Atomic      Atomic             Coordinates (Angstroms)
 Number     Number       Type             X           Y           Z
 ---------------------------------------------------------------------
      1          6           0        0.747486    0.615732    0.041598
      2          6           0        1.393714   -0.520399   -0.013002
      3          1           0        1.221358    1.575893    0.084795
      4          1           0        2.464606   -0.544100   -0.010463
      5          1           0        0.864766   -1.450558   -0.061291
      6          8           0       -0.664916    0.680709   -0.000268
      7          8           0       -1.210554    0.371758    1.333641
      8          1           0       -0.701063    0.954405    1.927137
 ---------------------------------------------------------------------

 Alpha  occ. eigenvalues --  -20.52650 -20.51929 -11.24406 -11.18913  -1.46416
 Alpha  occ. eigenvalues --   -1.23029  -1.04306  -0.80889  -0.69903  -0.68796
 Alpha  occ. eigenvalues --   -0.60333  -0.59313  -0.57611  -0.50017  -0.44928
 Alpha  occ. eigenvalues --   -0.39383
 Alpha virt. eigenvalues --    0.13992   0.27047   0.27837   0.29475   0.31412
 Alpha virt. eigenvalues --    0.36242   0.49505   0.55697   0.87483   0.96546
 Alpha virt. eigenvalues --    0.98253   1.06201   1.09314   1.10420   1.25007

 Mulliken charges:
               1
     1  C    0.072749
     2  C   -0.438985
     3  H    0.236587
     4  H    0.230926
     5  H    0.260145
     6  O   -0.383412
     7  O   -0.374340
     8  H    0.396330
 Sum of Mulliken charges =   0.00000

 Dipole moment (field-independent basis, Debye):
    X=              3.1393    Y=              0.7039    Z=              1.3845  Tot=              3.5025
 Quadrupole moment (field-independent basis, Debye-Ang):
   XX=            -24.8013   YY=            -20.5883   ZZ=            -21.5105
   XY=              0.5165   XZ=              0.4821   YZ=              3.1958

 Normal termination of Gaussian 09 at Fri Apr 12 16:48:04 2019.
