 Gaussian 09, Revision D.01,
 Gaussian 09:  AS64L-G09RevD.01 24-Apr-2013

 --------------------------------------------------------------------
 #p hf 3-21g scf=tight NoSymmetry guess=read opt=(tight,modredundant)
 --------------------------------------------------------------------

 -----------------------------------
 Geometry optimization at the 2D-PES
 -----------------------------------
 Symbolic Z-matrix:
 Charge =  0 Multiplicity = 1

 SCF Done:  E(RHF) =  -226.396208144     A.U. after   13 cycles
 SCF Done:  E(RHF) =  -226.396210592     A.U. after   11 cycles
 SCF Done:  E(RHF) =  -226.396211881     A.U. after    9 cycles
 SCF Done:  E(RHF) =  -226.396211920     A.U. after    8 cycles
 SCF Done:  E(RHF) =  -226.396211921     A.U. after    6 cycles
 Optimization completed.
    -- Stationary point found.

                          Input orientation:
 ---------------------------------------------------------------------
 Center     Atomic      Atomic             Coordinates (Angstroms)
 Number     Number       Type             X           Y           Z
 ---------------------------------------------------------------------
      1          6           0        0.727463    0.635477    0.054137
      2          6           0        1.368298   -0.504368    0.002092
      3          1           0        1.186138    1.598140    0.121028
      4          1           0        2.438238   -0.526161   -0.018643
      5          1           0        0.840632   -1.435212   -0.035779
      6          8           0       -0.670715    0.672092   -0.019110
      7          8           0       -1.095938    1.693921    0.949133
      8          1           0       -1.908616    1.998520    0.512024
 ---------------------------------------------------------------------

 Alpha  occ. eigenvalues --  -20.53224 -20.52275 -11.24019 -11.16817  -1.47212
 Alpha  occ. eigenvalues --   -1.23741  -1.02748  -0.79552  -0.69623  -0.68393
 Alpha  occ. eigenvalues --   -0.64804  -0.56735  -0.55427  -0.51836  -0.46872
 Alpha  occ. eigenvalues --   -0.36488
 Alpha virt. eigenvalues --    0.17469   0.25273   0.28327   0.31921   0.32935
 Alpha virt. eigenvalues --    0.36091   0.49659   0.57442   0.90114   0.97304
 Alpha virt. eigenvalues --    1.00249   1.06878   1.10889   1.12600   1.22886

 Mulliken charges:
               1
     1  C    0.163722
     2  C   -0.490630
     3  H    0.249110
     4  H    0.226030
     5  H    0.242048
     6  O   -0.417854
     7  O   -0.390623
     8  H    0.418198
 Sum of Mulliken charges =   0.00000

 Dipole moment (field-independent basis, Debye):
    X=              0.1080    Y=              0.8332    Z=             -0.7051  Tot=              1.0968
 Quadrupole moment (field-independent basis, Debye-Ang):
   XX=            -17.6451   YY=            -19.3337   ZZ=            -27.1156
   XY=             -3.1735   XZ=              0.0730   YZ=             -0.9128

 Normal termination of Gaussian 09 at Fri Apr 12 16:02:00 2019.
