 Gaussian 09, Revision D.01,
 Gaussian 09:  AS64L-G09RevD.01 24-Apr-2013

 --------------------------------------------------------------------
 #p hf 3-21g scf=tight NoSymmetry guess=read opt=(tight,modredundant)
 --------------------------------------------------------------------

 -----------------------------------
 Geometry optimization at the 2D-PES
 -----------------------------------
 Symbolic Z-matrix:
 Charge =  0 Multiplicity = 1

 SCF Done:  E(RHF) =  -226.391945124     A.U. after   12 cycles
 SCF Done:  E(RHF) =  -226.391957223     A.U. after   11 cycles
 SCF Done:  E(RHF) =  -226.391963928     A.U. after   10 cycles
 SCF Done:  E(RHF) =  -226.391964008     A.U. after    9 cycles
 SCF Done:  E(RHF) =  -226.391964022     A.U. after    6 cycles
 Optimization completed.
    -- Stationary point found.

                          Input orientation:
 ---------------------------------------------------------------------
 Center     Atomic      Atomic             Coordinates (Angstroms)
 Number     Number       Type             X           Y           Z
 ---------------------------------------------------------------------
      1          6           0        0.734988    0.628664    0.047238
      2          6           0        1.374062   -0.510993    0.002344
      3          1           0        1.209428    1.585804    0.120101
      4          1           0        2.444464   -0.541544   -0.000435
      5          1           0        0.838180   -1.436570   -0.048001
      6          8           0       -0.672192    0.670946   -0.022326
      7          8           0       -1.154101    1.073818    1.307611
      8          1           0       -1.333114    2.020543    1.166756
 ---------------------------------------------------------------------

 Alpha  occ. eigenvalues --  -20.52858 -20.52028 -11.24020 -11.17823  -1.46802
 Alpha  occ. eigenvalues --   -1.23225  -1.03369  -0.79951  -0.69537  -0.68475
 Alpha  occ. eigenvalues --   -0.64404  -0.57300  -0.55880  -0.48728  -0.47012
 Alpha  occ. eigenvalues --   -0.38257
 Alpha virt. eigenvalues --    0.15861   0.26074   0.27970   0.31130   0.32635
 Alpha virt. eigenvalues --    0.35770   0.49153   0.56610   0.88762   0.97150
 Alpha virt. eigenvalues --    0.98558   1.06773   1.10108   1.11921   1.24257

 Mulliken charges:
               1
     1  C    0.131525
     2  C   -0.457181
     3  H    0.225234
     4  H    0.227211
     5  H    0.252036
     6  O   -0.400635
     7  O   -0.382512
     8  H    0.404322
 Sum of Mulliken charges =   0.00000

 Dipole moment (field-independent basis, Debye):
    X=              1.6343    Y=              1.7255    Z=             -0.0341  Tot=              2.3768
 Quadrupole moment (field-independent basis, Debye-Ang):
   XX=            -22.0476   YY=            -15.7300   ZZ=            -26.4508
   XY=             -2.1956   XZ=             -0.2021   YZ=              2.4123

 Normal termination of Gaussian 09 at Fri Apr 12 16:23:04 2019.
