 Gaussian 09, Revision D.01,
 Gaussian 09:  AS64L-G09RevD.01 24-Apr-2013

 --------------------------------------------------------------------
 #p hf 3-21g scf=tight NoSymmetry guess=read opt=(tight,modredundant)
 --------------------------------------------------------------------

 -----------------------------------
 Geometry optimization at the 2D-PES
 -----------------------------------
 Symbolic Z-matrix:
 Charge =  0 Multiplicity = 1

 SCF Done:  E(RHF) =  -226.394273391     A.U. after   13 cycles
 SCF Done:  E(RHF) =  -226.394280828     A.U. after   11 cycles
 SCF Done:  E(RHF) =  -226.394284606     A.U. after   10 cycles
 SCF Done:  E(RHF) =  -226.394284673     A.U. after    9 cycles
 SCF Done:  E(RHF) =  -226.394284679     A.U. after    6 cycles
 Optimization completed.
    -- Stationary point found.

                          Input orientation:
 ---------------------------------------------------------------------
 Center     Atomic      Atomic             Coordinates (Angstroms)
 Number     Number       Type             X           Y           Z
 ---------------------------------------------------------------------
      1          6           0        0.731087    0.632821    0.048948
      2          6           0        1.371185   -0.506672    0.003171
      3          1           0        1.198132    1.592039    0.125007
      4          1           0        2.441459   -0.534231   -0.006783
      5          1           0        0.837680   -1.433831   -0.042073
      6          8           0       -0.672839    0.668884   -0.023935
      7          8           0       -1.131963    1.298137    1.224075
      8          1           0       -1.602724    2.071130    0.867670
 ---------------------------------------------------------------------

 Alpha  occ. eigenvalues --  -20.52935 -20.52049 -11.23947 -11.17434  -1.46894
 Alpha  occ. eigenvalues --   -1.23371  -1.03089  -0.79619  -0.69482  -0.68479
 Alpha  occ. eigenvalues --   -0.64966  -0.56791  -0.55111  -0.50616  -0.46513
 Alpha  occ. eigenvalues --   -0.37616
 Alpha virt. eigenvalues --    0.16452   0.26235   0.28180   0.31439   0.32560
 Alpha virt. eigenvalues --    0.35871   0.49170   0.56939   0.89317   0.97246
 Alpha virt. eigenvalues --    0.99254   1.07085   1.10555   1.12660   1.22739

 Mulliken charges:
               1
     1  C    0.146501
     2  C   -0.468591
     3  H    0.232192
     4  H    0.226541
     5  H    0.248552
     6  O   -0.408389
     7  O   -0.386904
     8  H    0.410098
 Sum of Mulliken charges =   0.00000

 Dipole moment (field-independent basis, Debye):
    X=              0.9672    Y=              1.5342    Z=             -0.4909  Tot=              1.8788
 Quadrupole moment (field-independent basis, Debye-Ang):
   XX=            -20.2367   YY=            -16.2962   ZZ=            -27.3108
   XY=             -3.0493   XZ=             -0.0967   YZ=              0.8017

 Normal termination of Gaussian 09 at Fri Apr 12 16:16:32 2019.
