 Gaussian 09, Revision D.01,
 Gaussian 09:  AS64L-G09RevD.01 24-Apr-2013

 --------------------------------------------------------------------
 #p hf 3-21g scf=tight NoSymmetry guess=read opt=(tight,modredundant)
 --------------------------------------------------------------------

 -----------------------------------
 Geometry optimization at the 2D-PES
 -----------------------------------
 Symbolic Z-matrix:
 Charge =  0 Multiplicity = 1

 SCF Done:  E(RHF) =  -226.394995218     A.U. after   12 cycles
 SCF Done:  E(RHF) =  -226.394995537     A.U. after    9 cycles
 SCF Done:  E(RHF) =  -226.394995605     A.U. after    8 cycles
 SCF Done:  E(RHF) =  -226.394995612     A.U. after    6 cycles
 SCF Done:  E(RHF) =  -226.394995613     A.U. after    6 cycles
 Optimization completed.
    -- Stationary point found.

                          Input orientation:
 ---------------------------------------------------------------------
 Center     Atomic      Atomic             Coordinates (Angstroms)
 Number     Number       Type             X           Y           Z
 ---------------------------------------------------------------------
      1          6           0        0.723928    0.632089    0.048118
      2          6           0        1.367756   -0.505934    0.004397
      3          1           0        1.184417    1.593308    0.129976
      4          1           0        2.438164   -0.528690   -0.001162
      5          1           0        0.840209   -1.436311   -0.046526
      6          8           0       -0.676831    0.666109   -0.028206
      7          8           0       -1.119428    1.299635    1.230171
      8          1           0       -2.079835    1.276303    1.081756
 ---------------------------------------------------------------------

 Alpha  occ. eigenvalues --  -20.52629 -20.51691 -11.23779 -11.17320  -1.46402
 Alpha  occ. eigenvalues --   -1.23288  -1.02893  -0.79333  -0.69100  -0.68375
 Alpha  occ. eigenvalues --   -0.63973  -0.57749  -0.55711  -0.51029  -0.44907
 Alpha  occ. eigenvalues --   -0.37524
 Alpha virt. eigenvalues --    0.16412   0.26841   0.28748   0.31467   0.32322
 Alpha virt. eigenvalues --    0.36219   0.49557   0.57121   0.89580   0.97456
 Alpha virt. eigenvalues --    0.99627   1.07147   1.10572   1.12221   1.23952

 Mulliken charges:
               1
     1  C    0.156498
     2  C   -0.471002
     3  H    0.243490
     4  H    0.226736
     5  H    0.242740
     6  O   -0.420465
     7  O   -0.395529
     8  H    0.417532
 Sum of Mulliken charges =   0.00000

 Dipole moment (field-independent basis, Debye):
    X=             -0.0740    Y=             -0.0862    Z=             -0.0417  Tot=              0.1210
 Quadrupole moment (field-independent basis, Debye-Ang):
   XX=            -16.1001   YY=            -22.1635   ZZ=            -26.4272
   XY=             -1.4576   XZ=             -2.0475   YZ=             -0.0541

 Normal termination of Gaussian 09 at Fri Apr 12 16:15:07 2019.
