 Gaussian 09, Revision D.01,
 Gaussian 09:  AS64L-G09RevD.01 24-Apr-2013

 --------------------------------------------------------------------
 #p hf 3-21g scf=tight NoSymmetry guess=read opt=(tight,modredundant)
 --------------------------------------------------------------------

 -----------------------------------
 Geometry optimization at the 2D-PES
 -----------------------------------
 Symbolic Z-matrix:
 Charge =  0 Multiplicity = 1

 SCF Done:  E(RHF) =  -226.395440971     A.U. after   13 cycles
 SCF Done:  E(RHF) =  -226.395445478     A.U. after   11 cycles
 SCF Done:  E(RHF) =  -226.395447799     A.U. after   10 cycles
 SCF Done:  E(RHF) =  -226.395447843     A.U. after    8 cycles
 SCF Done:  E(RHF) =  -226.395447847     A.U. after    7 cycles
 Optimization completed.
    -- Stationary point found.

                          Input orientation:
 ---------------------------------------------------------------------
 Center     Atomic      Atomic             Coordinates (Angstroms)
 Number     Number       Type             X           Y           Z
 ---------------------------------------------------------------------
      1          6           0        0.723801    0.639115    0.020124
      2          6           0        1.366745   -0.500170   -0.024339
      3          1           0        1.182211    1.602804    0.066702
      4          1           0        2.435941   -0.522972    0.021803
      5          1           0        0.842916   -1.432288   -0.085251
      6          8           0       -0.678273    0.668759    0.057341
      7          8           0       -1.083718    1.781189   -0.813792
      8          1           0       -1.746093    1.330059   -1.364114
 ---------------------------------------------------------------------

 Alpha  occ. eigenvalues --  -20.53294 -20.52313 -11.24200 -11.17071  -1.47304
 Alpha  occ. eigenvalues --   -1.23724  -1.03007  -0.79692  -0.71204  -0.66618
 Alpha  occ. eigenvalues --   -0.62144  -0.61682  -0.55583  -0.49338  -0.47338
 Alpha  occ. eigenvalues --   -0.37094
 Alpha virt. eigenvalues --    0.17534   0.24822   0.27957   0.31570   0.33195
 Alpha virt. eigenvalues --    0.35923   0.49544   0.57196   0.89870   0.97035
 Alpha virt. eigenvalues --    0.99678   1.06936   1.10588   1.12820   1.22020

 Mulliken charges:
               1
     1  C    0.158002
     2  C   -0.493543
     3  H    0.255232
     4  H    0.227607
     5  H    0.238093
     6  O   -0.412627
     7  O   -0.390410
     8  H    0.417646
 Sum of Mulliken charges =   0.00000

 Dipole moment (field-independent basis, Debye):
    X=              0.4404    Y=             -0.7379    Z=             -1.3501  Tot=              1.6004
 Quadrupole moment (field-independent basis, Debye-Ang):
   XX=            -18.9803   YY=            -24.8638   ZZ=            -22.9971
   XY=              0.4925   XZ=              3.7920   YZ=             -0.7361

 Normal termination of Gaussian 09 at Fri Apr 12 15:21:49 2019.
