 Gaussian 09, Revision D.01,
 Gaussian 09:  AS64L-G09RevD.01 24-Apr-2013

 --------------------------------------------------------------------
 #p hf 3-21g scf=tight NoSymmetry guess=read opt=(tight,modredundant)
 --------------------------------------------------------------------

 -----------------------------------
 Geometry optimization at the 2D-PES
 -----------------------------------
 Symbolic Z-matrix:
 Charge =  0 Multiplicity = 1

 SCF Done:  E(RHF) =  -226.398431926     A.U. after   13 cycles
 SCF Done:  E(RHF) =  -226.398433239     A.U. after   11 cycles
 SCF Done:  E(RHF) =  -226.398436222     A.U. after   10 cycles
 SCF Done:  E(RHF) =  -226.398436242     A.U. after    8 cycles
 SCF Done:  E(RHF) =  -226.398436245     A.U. after    7 cycles
 Optimization completed.
    -- Stationary point found.

                          Input orientation:
 ---------------------------------------------------------------------
 Center     Atomic      Atomic             Coordinates (Angstroms)
 Number     Number       Type             X           Y           Z
 ---------------------------------------------------------------------
      1          6           0        0.733563    0.571749    0.034069
      2          6           0        1.423025   -0.536562   -0.054047
      3          1           0        1.165163    1.549509    0.096500
      4          1           0        2.492449   -0.494894   -0.061035
      5          1           0        0.949409   -1.490701   -0.122411
      6          8           0       -0.652169    0.711015    0.052047
      7          8           0       -1.272904   -0.609139   -0.045257
      8          1           0       -2.088089   -0.433927    0.453394
 ---------------------------------------------------------------------

 Alpha  occ. eigenvalues --  -20.53937 -20.52773 -11.24210 -11.15639  -1.47969
 Alpha  occ. eigenvalues --   -1.24122  -1.02723  -0.79149  -0.71732  -0.66032
 Alpha  occ. eigenvalues --   -0.64308  -0.60486  -0.53659  -0.50819  -0.48509
 Alpha  occ. eigenvalues --   -0.35497
 Alpha virt. eigenvalues --    0.20381   0.22749   0.28644   0.30457   0.34275
 Alpha virt. eigenvalues --    0.37436   0.50114   0.59258   0.89361   0.97349
 Alpha virt. eigenvalues --    1.01417   1.07638   1.10742   1.13004   1.23068

 Mulliken charges:
               1
     1  C    0.156699
     2  C   -0.508721
     3  H    0.257726
     4  H    0.218071
     5  H    0.254687
     6  O   -0.420091
     7  O   -0.382205
     8  H    0.423834
 Sum of Mulliken charges =   0.00000

 Dipole moment (field-independent basis, Debye):
    X=             -0.1989    Y=              0.1575    Z=              1.0592  Tot=              1.0892
 Quadrupole moment (field-independent basis, Debye-Ang):
   XX=            -17.0938   YY=            -22.7595   ZZ=            -25.3211
   XY=              2.0231   XZ=             -2.2880   YZ=             -0.2682

 Normal termination of Gaussian 09 at Fri Apr 12 18:00:09 2019.
