 Gaussian 09, Revision D.01,
 Gaussian 09:  AS64L-G09RevD.01 24-Apr-2013

 --------------------------------------------------------------------
 #p hf 3-21g scf=tight NoSymmetry guess=read opt=(tight,modredundant)
 --------------------------------------------------------------------

 -----------------------------------
 Geometry optimization at the 2D-PES
 -----------------------------------
 Symbolic Z-matrix:
 Charge =  0 Multiplicity = 1

 SCF Done:  E(RHF) =  -226.397275925     A.U. after   13 cycles
 SCF Done:  E(RHF) =  -226.397276399     A.U. after   11 cycles
 SCF Done:  E(RHF) =  -226.397276643     A.U. after   10 cycles
 SCF Done:  E(RHF) =  -226.397276651     A.U. after    7 cycles
 SCF Done:  E(RHF) =  -226.397276652     A.U. after    6 cycles
 Optimization completed.
    -- Stationary point found.

                          Input orientation:
 ---------------------------------------------------------------------
 Center     Atomic      Atomic             Coordinates (Angstroms)
 Number     Number       Type             X           Y           Z
 ---------------------------------------------------------------------
      1          6           0        0.731890    0.575833    0.052764
      2          6           0        1.413834   -0.536575   -0.042930
      3          1           0        1.170264    1.551781    0.091190
      4          1           0        2.483571   -0.503840   -0.057178
      5          1           0        0.933456   -1.489754   -0.082052
      6          8           0       -0.655129    0.712143    0.049497
      7          8           0       -1.259557   -0.576019    0.398811
      8          1           0       -2.178332   -0.282515    0.516080
 ---------------------------------------------------------------------

 Alpha  occ. eigenvalues --  -20.53629 -20.52552 -11.24074 -11.15756  -1.47598
 Alpha  occ. eigenvalues --   -1.23947  -1.02658  -0.79009  -0.71803  -0.64820
 Alpha  occ. eigenvalues --   -0.63904  -0.61807  -0.53678  -0.50740  -0.47819
 Alpha  occ. eigenvalues --   -0.35534
 Alpha virt. eigenvalues --    0.19387   0.23710   0.28687   0.30610   0.34144
 Alpha virt. eigenvalues --    0.37419   0.50294   0.58999   0.89398   0.97603
 Alpha virt. eigenvalues --    1.00573   1.07632   1.10801   1.12739   1.24223

 Mulliken charges:
               1
     1  C    0.156213
     2  C   -0.501510
     3  H    0.255669
     4  H    0.218647
     5  H    0.254790
     6  O   -0.423115
     7  O   -0.384795
     8  H    0.424102
 Sum of Mulliken charges =   0.00000

 Dipole moment (field-independent basis, Debye):
    X=             -0.3614    Y=              0.3764    Z=              0.3642  Tot=              0.6363
 Quadrupole moment (field-independent basis, Debye-Ang):
   XX=            -16.0536   YY=            -22.9054   ZZ=            -25.5545
   XY=              1.4137   XZ=             -1.4206   YZ=              0.3974

 Normal termination of Gaussian 09 at Fri Apr 12 17:37:34 2019.
