 Gaussian 09, Revision D.01,
 Gaussian 09:  AS64L-G09RevD.01 24-Apr-2013

 --------------------------------------------------------------------
 #p hf 3-21g scf=tight NoSymmetry guess=read opt=(tight,modredundant)
 --------------------------------------------------------------------

 -----------------------------------
 Geometry optimization at the 2D-PES
 -----------------------------------
 Symbolic Z-matrix:
 Charge =  0 Multiplicity = 1

 SCF Done:  E(RHF) =  -226.381900459     A.U. after   13 cycles
 SCF Done:  E(RHF) =  -226.381908528     A.U. after   12 cycles
 SCF Done:  E(RHF) =  -226.381911364     A.U. after   10 cycles
 SCF Done:  E(RHF) =  -226.381911458     A.U. after    9 cycles
 SCF Done:  E(RHF) =  -226.381911463     A.U. after    7 cycles
 Optimization completed.
    -- Stationary point found.

                          Input orientation:
 ---------------------------------------------------------------------
 Center     Atomic      Atomic             Coordinates (Angstroms)
 Number     Number       Type             X           Y           Z
 ---------------------------------------------------------------------
      1          6           0        0.747050    0.633495    0.030011
      2          6           0        1.389767   -0.506770   -0.007958
      3          1           0        1.220130    1.592988    0.092566
      4          1           0        2.459320   -0.536020    0.039318
      5          1           0        0.857075   -1.434491   -0.062117
      6          8           0       -0.661167    0.664811    0.038466
      7          8           0       -1.156009    1.192017   -1.253518
      8          1           0       -0.365170    1.223210   -1.823591
 ---------------------------------------------------------------------

 Alpha  occ. eigenvalues --  -20.52992 -20.51915 -11.25086 -11.19527  -1.46460
 Alpha  occ. eigenvalues --   -1.23537  -1.04812  -0.81423  -0.71819  -0.67383
 Alpha  occ. eigenvalues --   -0.60918  -0.59268  -0.56400  -0.52797  -0.44524
 Alpha  occ. eigenvalues --   -0.39560
 Alpha virt. eigenvalues --    0.13781   0.26226   0.27574   0.29678   0.31069
 Alpha virt. eigenvalues --    0.35635   0.48847   0.55483   0.87494   0.96439
 Alpha virt. eigenvalues --    0.97733   1.05509   1.08791   1.11211   1.24266

 Mulliken charges:
               1
     1  C    0.064265
     2  C   -0.447425
     3  H    0.242600
     4  H    0.234705
     5  H    0.258640
     6  O   -0.374999
     7  O   -0.376287
     8  H    0.398502
 Sum of Mulliken charges =   0.00000

 Dipole moment (field-independent basis, Debye):
    X=              3.7005    Y=             -0.2675    Z=             -1.2195  Tot=              3.9054
 Quadrupole moment (field-independent basis, Debye-Ang):
   XX=            -25.2105   YY=            -21.9404   ZZ=            -21.9177
   XY=              2.8494   XZ=             -1.3637   YZ=             -1.4511

 Normal termination of Gaussian 09 at Fri Apr 12 15:10:45 2019.
