 Gaussian 09, Revision D.01,
 Gaussian 09:  AS64L-G09RevD.01 24-Apr-2013

 --------------------------------------------------------------------
 #p hf 3-21g scf=tight NoSymmetry guess=read opt=(tight,modredundant)
 --------------------------------------------------------------------

 -----------------------------------
 Geometry optimization at the 2D-PES
 -----------------------------------
 Symbolic Z-matrix:
 Charge =  0 Multiplicity = 1

 SCF Done:  E(RHF) =  -226.390730941     A.U. after   13 cycles
 SCF Done:  E(RHF) =  -226.390737727     A.U. after   11 cycles
 SCF Done:  E(RHF) =  -226.390741896     A.U. after   10 cycles
 SCF Done:  E(RHF) =  -226.390741953     A.U. after    8 cycles
 SCF Done:  E(RHF) =  -226.390741960     A.U. after    7 cycles
 SCF Done:  E(RHF) =  -226.390741961     A.U. after    6 cycles
 Optimization completed.
    -- Stationary point found.

                          Input orientation:
 ---------------------------------------------------------------------
 Center     Atomic      Atomic             Coordinates (Angstroms)
 Number     Number       Type             X           Y           Z
 ---------------------------------------------------------------------
      1          6           0        0.729358    0.620117    0.038615
      2          6           0        1.378097   -0.515680   -0.003175
      3          1           0        1.197389    1.577530    0.122876
      4          1           0        2.448488   -0.535979    0.018557
      5          1           0        0.862577   -1.452008   -0.083946
      6          8           0       -0.681543    0.668957   -0.017326
      7          8           0       -1.171968    0.598792    1.369155
      8          1           0       -1.418643   -0.340773    1.425605
 ---------------------------------------------------------------------

 Alpha  occ. eigenvalues --  -20.52672 -20.51983 -11.24275 -11.18432  -1.46664
 Alpha  occ. eigenvalues --   -1.23085  -1.03948  -0.79732  -0.71467  -0.66126
 Alpha  occ. eigenvalues --   -0.64577  -0.59295  -0.55947  -0.47785  -0.46770
 Alpha  occ. eigenvalues --   -0.39130
 Alpha virt. eigenvalues --    0.15083   0.25421   0.28698   0.30875   0.31602
 Alpha virt. eigenvalues --    0.36189   0.49275   0.56152   0.88325   0.96679
 Alpha virt. eigenvalues --    0.97694   1.06406   1.09333   1.11905   1.24615

 Mulliken charges:
               1
     1  C    0.133676
     2  C   -0.464539
     3  H    0.244742
     4  H    0.232842
     5  H    0.232526
     6  O   -0.403941
     7  O   -0.381105
     8  H    0.405800
 Sum of Mulliken charges =   0.00000

 Dipole moment (field-independent basis, Debye):
    X=              1.5331    Y=             -2.1041    Z=              0.4030  Tot=              2.6343
 Quadrupole moment (field-independent basis, Debye-Ang):
   XX=            -21.5546   YY=            -22.4973   ZZ=            -25.2916
   XY=              3.8697   XZ=             -0.9922   YZ=             -2.4101

 Normal termination of Gaussian 09 at Fri Apr 12 16:42:43 2019.
