 Gaussian 09, Revision D.01,
 Gaussian 09:  AS64L-G09RevD.01 24-Apr-2013

 --------------------------------------------------------------------
 #p hf 3-21g scf=tight NoSymmetry guess=read opt=(tight,modredundant)
 --------------------------------------------------------------------

 -----------------------------------
 Geometry optimization at the 2D-PES
 -----------------------------------
 Symbolic Z-matrix:
 Charge =  0 Multiplicity = 1

 SCF Done:  E(RHF) =  -226.392257093     A.U. after   12 cycles
 SCF Done:  E(RHF) =  -226.392268642     A.U. after   11 cycles
 SCF Done:  E(RHF) =  -226.392281589     A.U. after   10 cycles
 SCF Done:  E(RHF) =  -226.392281644     A.U. after    8 cycles
 SCF Done:  E(RHF) =  -226.392281652     A.U. after    8 cycles
 SCF Done:  E(RHF) =  -226.392281652     A.U. after    6 cycles
 Optimization completed.
    -- Stationary point found.

                          Input orientation:
 ---------------------------------------------------------------------
 Center     Atomic      Atomic             Coordinates (Angstroms)
 Number     Number       Type             X           Y           Z
 ---------------------------------------------------------------------
      1          6           0        0.740390    0.636503    0.042007
      2          6           0        1.373030   -0.508065   -0.006280
      3          1           0        1.211344    1.593172    0.112689
      4          1           0        2.442898   -0.534142   -0.004329
      5          1           0        0.843340   -1.437643   -0.049909
      6          8           0       -0.663457    0.684247    0.007180
      7          8           0       -1.082916    2.048316    0.314871
      8          1           0       -1.108573    2.449646   -0.572387
 ---------------------------------------------------------------------

 Alpha  occ. eigenvalues --  -20.53992 -20.53309 -11.24725 -11.16797  -1.48374
 Alpha  occ. eigenvalues --   -1.24178  -1.03206  -0.80342  -0.71656  -0.67371
 Alpha  occ. eigenvalues --   -0.65358  -0.56713  -0.54576  -0.53180  -0.48710
 Alpha  occ. eigenvalues --   -0.36367
 Alpha virt. eigenvalues --    0.18889   0.22066   0.26812   0.31778   0.33674
 Alpha virt. eigenvalues --    0.35578   0.49536   0.57294   0.89761   0.96701
 Alpha virt. eigenvalues --    0.99601   1.06188   1.10432   1.11404   1.24251

 Mulliken charges:
               1
     1  C    0.145547
     2  C   -0.504132
     3  H    0.250621
     4  H    0.227593
     5  H    0.243083
     6  O   -0.399345
     7  O   -0.372117
     8  H    0.408751
 Sum of Mulliken charges =   0.00000

 Dipole moment (field-independent basis, Debye):
    X=              1.6761    Y=              1.1782    Z=             -1.7482  Tot=              2.6932
 Quadrupole moment (field-independent basis, Debye-Ang):
   XX=            -23.0808   YY=            -17.7452   ZZ=            -25.1439
   XY=              0.1060   XZ=              2.1914   YZ=             -4.2175

 Normal termination of Gaussian 09 at Fri Apr 12 15:45:48 2019.
