 Gaussian 09, Revision D.01,
 Gaussian 09:  AS64L-G09RevD.01 24-Apr-2013

 --------------------------------------------------------------------
 #p hf 3-21g scf=tight NoSymmetry guess=read opt=(tight,modredundant)
 --------------------------------------------------------------------

 -----------------------------------
 Geometry optimization at the 2D-PES
 -----------------------------------
 Symbolic Z-matrix:
 Charge =  0 Multiplicity = 1

 SCF Done:  E(RHF) =  -226.395222531     A.U. after   13 cycles
 SCF Done:  E(RHF) =  -226.395223591     A.U. after   10 cycles
 SCF Done:  E(RHF) =  -226.395223954     A.U. after    9 cycles
 SCF Done:  E(RHF) =  -226.395223978     A.U. after    7 cycles
 SCF Done:  E(RHF) =  -226.395223979     A.U. after    6 cycles
 Optimization completed.
    -- Stationary point found.

                          Input orientation:
 ---------------------------------------------------------------------
 Center     Atomic      Atomic             Coordinates (Angstroms)
 Number     Number       Type             X           Y           Z
 ---------------------------------------------------------------------
      1          6           0        0.724933    0.632540    0.047753
      2          6           0        1.368038   -0.505771    0.004026
      3          1           0        1.185456    1.593692    0.130456
      4          1           0        2.438418   -0.529479   -0.002056
      5          1           0        0.838946   -1.435305   -0.045028
      6          8           0       -0.676193    0.665895   -0.028181
      7          8           0       -1.120097    1.298835    1.228572
      8          1           0       -2.011023    1.576515    0.956399
 ---------------------------------------------------------------------

 Alpha  occ. eigenvalues --  -20.52681 -20.51757 -11.23761 -11.17294  -1.46497
 Alpha  occ. eigenvalues --   -1.23301  -1.02880  -0.79321  -0.68912  -0.68626
 Alpha  occ. eigenvalues --   -0.64512  -0.56916  -0.55379  -0.51517  -0.45178
 Alpha  occ. eigenvalues --   -0.37433
 Alpha virt. eigenvalues --    0.16426   0.26846   0.28742   0.31494   0.32344
 Alpha virt. eigenvalues --    0.36191   0.49471   0.57149   0.89632   0.97416
 Alpha virt. eigenvalues --    0.99775   1.07136   1.10700   1.12431   1.23401

 Mulliken charges:
               1
     1  C    0.154481
     2  C   -0.470108
     3  H    0.240895
     4  H    0.226418
     5  H    0.244806
     6  O   -0.418639
     7  O   -0.394027
     8  H    0.416173
 Sum of Mulliken charges =   0.00000

 Dipole moment (field-independent basis, Debye):
    X=              0.0748    Y=              0.5469    Z=             -0.3097  Tot=              0.6329
 Quadrupole moment (field-independent basis, Debye-Ang):
   XX=            -16.7782   YY=            -20.2570   ZZ=            -26.9840
   XY=             -2.6900   XZ=             -1.2877   YZ=              0.2187

 Normal termination of Gaussian 09 at Fri Apr 12 16:15:30 2019.
