 Gaussian 09, Revision D.01,
 Gaussian 09:  AS64L-G09RevD.01 24-Apr-2013

 --------------------------------------------------------------------
 #p hf 3-21g scf=tight NoSymmetry guess=read opt=(tight,modredundant)
 --------------------------------------------------------------------

 -----------------------------------
 Geometry optimization at the 2D-PES
 -----------------------------------
 Symbolic Z-matrix:
 Charge =  0 Multiplicity = 1

 SCF Done:  E(RHF) =  -226.393127122     A.U. after   12 cycles
 SCF Done:  E(RHF) =  -226.393132692     A.U. after   11 cycles
 SCF Done:  E(RHF) =  -226.393137002     A.U. after   10 cycles
 SCF Done:  E(RHF) =  -226.393137048     A.U. after    8 cycles
 SCF Done:  E(RHF) =  -226.393137056     A.U. after    8 cycles
 Optimization completed.
    -- Stationary point found.

                          Input orientation:
 ---------------------------------------------------------------------
 Center     Atomic      Atomic             Coordinates (Angstroms)
 Number     Number       Type             X           Y           Z
 ---------------------------------------------------------------------
      1          6           0        0.742363    0.588470    0.064054
      2          6           0        1.412161   -0.530795   -0.031507
      3          1           0        1.190671    1.560715    0.079838
      4          1           0        2.482417   -0.517306   -0.052749
      5          1           0        0.914334   -1.477130   -0.055975
      6          8           0       -0.659308    0.705700    0.044115
      7          8           0       -1.254650   -0.387627    0.813245
      8          1           0       -1.447417    0.063670    1.653688
 ---------------------------------------------------------------------

 Alpha  occ. eigenvalues --  -20.53322 -20.52530 -11.24137 -11.16900  -1.47436
 Alpha  occ. eigenvalues --   -1.23452  -1.03330  -0.79783  -0.70365  -0.67688
 Alpha  occ. eigenvalues --   -0.62790  -0.60355  -0.55243  -0.48628  -0.48275
 Alpha  occ. eigenvalues --   -0.37000
 Alpha virt. eigenvalues --    0.17023   0.24903   0.28935   0.29819   0.32930
 Alpha virt. eigenvalues --    0.37111   0.49810   0.57720   0.88539   0.96712
 Alpha virt. eigenvalues --    1.00473   1.06737   1.10170   1.12207   1.22954

 Mulliken charges:
               1
     1  C    0.120914
     2  C   -0.479647
     3  H    0.249925
     4  H    0.223380
     5  H    0.255744
     6  O   -0.403772
     7  O   -0.378493
     8  H    0.411950
 Sum of Mulliken charges =   0.00000

 Dipole moment (field-independent basis, Debye):
    X=              1.3942    Y=              0.6134    Z=              1.9584  Tot=              2.4810
 Quadrupole moment (field-independent basis, Debye-Ang):
   XX=            -21.9854   YY=            -22.6652   ZZ=            -21.0105
   XY=              0.1278   XZ=             -3.1644   YZ=              1.1935

 Normal termination of Gaussian 09 at Fri Apr 12 17:19:29 2019.
