 Gaussian 09, Revision D.01,
 Gaussian 09:  AS64L-G09RevD.01 24-Apr-2013

 --------------------------------------------------------------------
 #p hf 3-21g scf=tight NoSymmetry guess=read opt=(tight,modredundant)
 --------------------------------------------------------------------

 -----------------------------------
 Geometry optimization at the 2D-PES
 -----------------------------------
 Symbolic Z-matrix:
 Charge =  0 Multiplicity = 1

 SCF Done:  E(RHF) =  -226.392850750     A.U. after   13 cycles
 SCF Done:  E(RHF) =  -226.392857228     A.U. after   11 cycles
 SCF Done:  E(RHF) =  -226.392862832     A.U. after   10 cycles
 SCF Done:  E(RHF) =  -226.392862847     A.U. after    8 cycles
 SCF Done:  E(RHF) =  -226.392862851     A.U. after    7 cycles
 Optimization completed.
    -- Stationary point found.

                          Input orientation:
 ---------------------------------------------------------------------
 Center     Atomic      Atomic             Coordinates (Angstroms)
 Number     Number       Type             X           Y           Z
 ---------------------------------------------------------------------
      1          6           0        0.733453    0.639097    0.020110
      2          6           0        1.372264   -0.502724   -0.021688
      3          1           0        1.192787    1.602454    0.075395
      4          1           0        2.441442   -0.530160    0.024730
      5          1           0        0.843805   -1.432676   -0.078426
      6          8           0       -0.672662    0.669347    0.051600
      7          8           0       -1.098308    1.773113   -0.813159
      8          1           0       -1.027668    1.374061   -1.699729
 ---------------------------------------------------------------------

 Alpha  occ. eigenvalues --  -20.53672 -20.52709 -11.24601 -11.17834  -1.47824
 Alpha  occ. eigenvalues --   -1.23799  -1.03697  -0.80277  -0.72480  -0.65632
 Alpha  occ. eigenvalues --   -0.64153  -0.60027  -0.55542  -0.50071  -0.47794
 Alpha  occ. eigenvalues --   -0.37870
 Alpha virt. eigenvalues --    0.16580   0.24718   0.27418   0.31056   0.32652
 Alpha virt. eigenvalues --    0.35656   0.48973   0.56691   0.89193   0.96454
 Alpha virt. eigenvalues --    0.99047   1.06051   1.09888   1.10800   1.24400

 Mulliken charges:
               1
     1  C    0.121869
     2  C   -0.487098
     3  H    0.255397
     4  H    0.230664
     5  H    0.243955
     6  O   -0.391387
     7  O   -0.379123
     8  H    0.405724
 Sum of Mulliken charges =   0.00000

 Dipole moment (field-independent basis, Debye):
    X=              2.0163    Y=             -0.7084    Z=             -1.9547  Tot=              2.8962
 Quadrupole moment (field-independent basis, Debye-Ang):
   XX=            -23.4371   YY=            -24.5316   ZZ=            -20.7732
   XY=              2.3315   XZ=              2.2168   YZ=             -1.7625

 Normal termination of Gaussian 09 at Fri Apr 12 15:23:04 2019.
