 Gaussian 09, Revision D.01,
 Gaussian 09:  AS64L-G09RevD.01 24-Apr-2013

 --------------------------------------------------------------------
 #p hf 3-21g scf=tight NoSymmetry guess=read opt=(tight,modredundant)
 --------------------------------------------------------------------

 -----------------------------------
 Geometry optimization at the 2D-PES
 -----------------------------------
 Symbolic Z-matrix:
 Charge =  0 Multiplicity = 1

 SCF Done:  E(RHF) =  -226.397986468     A.U. after   13 cycles
 SCF Done:  E(RHF) =  -226.397988718     A.U. after   11 cycles
 SCF Done:  E(RHF) =  -226.397992982     A.U. after   11 cycles
 SCF Done:  E(RHF) =  -226.397993013     A.U. after    7 cycles
 SCF Done:  E(RHF) =  -226.397993018     A.U. after    7 cycles
 Optimization completed.
    -- Stationary point found.

                          Input orientation:
 ---------------------------------------------------------------------
 Center     Atomic      Atomic             Coordinates (Angstroms)
 Number     Number       Type             X           Y           Z
 ---------------------------------------------------------------------
      1          6           0        0.732749    0.570827    0.045892
      2          6           0        1.419839   -0.538455   -0.047666
      3          1           0        1.166329    1.548644    0.092690
      4          1           0        2.489340   -0.499201   -0.060214
      5          1           0        0.944232   -1.492891   -0.100214
      6          8           0       -0.653607    0.710485    0.051671
      7          8           0       -1.271984   -0.609255    0.174341
      8          1           0       -2.083675   -0.355889    0.644291
 ---------------------------------------------------------------------

 Alpha  occ. eigenvalues --  -20.53861 -20.52706 -11.24175 -11.15681  -1.47883
 Alpha  occ. eigenvalues --   -1.24061  -1.02715  -0.79154  -0.71741  -0.65689
 Alpha  occ. eigenvalues --   -0.63929  -0.61214  -0.53740  -0.50479  -0.48429
 Alpha  occ. eigenvalues --   -0.35546
 Alpha virt. eigenvalues --    0.20102   0.22985   0.28657   0.30480   0.34250
 Alpha virt. eigenvalues --    0.37417   0.50148   0.59195   0.89345   0.97378
 Alpha virt. eigenvalues --    1.01210   1.07623   1.10780   1.12981   1.23269

 Mulliken charges:
               1
     1  C    0.155613
     2  C   -0.506595
     3  H    0.256878
     4  H    0.218229
     5  H    0.255318
     6  O   -0.420269
     7  O   -0.383067
     8  H    0.423894
 Sum of Mulliken charges =   0.00000

 Dipole moment (field-independent basis, Debye):
    X=             -0.1724    Y=              0.3100    Z=              1.0669  Tot=              1.1244
 Quadrupole moment (field-independent basis, Debye-Ang):
   XX=            -17.1171   YY=            -22.8971   ZZ=            -24.9074
   XY=              1.6167   XZ=             -2.5890   YZ=             -0.0543

 Normal termination of Gaussian 09 at Fri Apr 12 17:48:41 2019.
