 Gaussian 09, Revision D.01,
 Gaussian 09:  AS64L-G09RevD.01 24-Apr-2013

 --------------------------------------------------------------------
 #p hf 3-21g scf=tight NoSymmetry guess=read opt=(tight,modredundant)
 --------------------------------------------------------------------

 -----------------------------------
 Geometry optimization at the 2D-PES
 -----------------------------------
 Symbolic Z-matrix:
 Charge =  0 Multiplicity = 1

 SCF Done:  E(RHF) =  -226.388190623     A.U. after   12 cycles
 SCF Done:  E(RHF) =  -226.388197820     A.U. after   12 cycles
 SCF Done:  E(RHF) =  -226.388203847     A.U. after   10 cycles
 SCF Done:  E(RHF) =  -226.388203860     A.U. after    8 cycles
 SCF Done:  E(RHF) =  -226.388203865     A.U. after    6 cycles
 Optimization completed.
    -- Stationary point found.

                          Input orientation:
 ---------------------------------------------------------------------
 Center     Atomic      Atomic             Coordinates (Angstroms)
 Number     Number       Type             X           Y           Z
 ---------------------------------------------------------------------
      1          6           0        0.741755    0.616924    0.044432
      2          6           0        1.388181   -0.518105   -0.010662
      3          1           0        1.215589    1.576486    0.097004
      4          1           0        2.459011   -0.541284   -0.004802
      5          1           0        0.860176   -1.448570   -0.059373
      6          8           0       -0.670821    0.679530   -0.003125
      7          8           0       -1.199808    0.364052    1.332272
      8          1           0       -1.086792    1.209857    1.803019
 ---------------------------------------------------------------------

 Alpha  occ. eigenvalues --  -20.52557 -20.51906 -11.23964 -11.18254  -1.46478
 Alpha  occ. eigenvalues --   -1.22898  -1.03727  -0.80238  -0.69598  -0.68390
 Alpha  occ. eigenvalues --   -0.62149  -0.59188  -0.56546  -0.47904  -0.46229
 Alpha  occ. eigenvalues --   -0.38904
 Alpha virt. eigenvalues --    0.14775   0.26500   0.28563   0.30187   0.31874
 Alpha virt. eigenvalues --    0.36353   0.49507   0.56238   0.88094   0.96809
 Alpha virt. eigenvalues --    0.98566   1.06121   1.09607   1.11260   1.25054

 Mulliken charges:
               1
     1  C    0.098004
     2  C   -0.441548
     3  H    0.231141
     4  H    0.227983
     5  H    0.256872
     6  O   -0.394397
     7  O   -0.378190
     8  H    0.400136
 Sum of Mulliken charges =   0.00000

 Dipole moment (field-independent basis, Debye):
    X=              2.3093    Y=              1.2946    Z=              1.2130  Tot=              2.9120
 Quadrupole moment (field-independent basis, Debye-Ang):
   XX=            -23.4492   YY=            -19.3433   ZZ=            -22.4595
   XY=             -0.8918   XZ=             -0.8567   YZ=              4.0335

 Normal termination of Gaussian 09 at Fri Apr 12 16:47:29 2019.
