 Gaussian 09, Revision D.01,
 Gaussian 09:  AS64L-G09RevD.01 24-Apr-2013

 --------------------------------------------------------------------
 #p hf 3-21g scf=tight NoSymmetry guess=read opt=(tight,modredundant)
 --------------------------------------------------------------------

 -----------------------------------
 Geometry optimization at the 2D-PES
 -----------------------------------
 Symbolic Z-matrix:
 Charge =  0 Multiplicity = 1

 SCF Done:  E(RHF) =  -226.390652251     A.U. after   13 cycles
 SCF Done:  E(RHF) =  -226.390666846     A.U. after   11 cycles
 SCF Done:  E(RHF) =  -226.390677120     A.U. after   10 cycles
 SCF Done:  E(RHF) =  -226.390677201     A.U. after    9 cycles
 SCF Done:  E(RHF) =  -226.390677209     A.U. after    8 cycles
 SCF Done:  E(RHF) =  -226.390677210     A.U. after    5 cycles
 Optimization completed.
    -- Stationary point found.

                          Input orientation:
 ---------------------------------------------------------------------
 Center     Atomic      Atomic             Coordinates (Angstroms)
 Number     Number       Type             X           Y           Z
 ---------------------------------------------------------------------
      1          6           0        0.738823    0.589071    0.065519
      2          6           0        1.413231   -0.528161   -0.029334
      3          1           0        1.193887    1.556931    0.091986
      4          1           0        2.483167   -0.510881   -0.049498
      5          1           0        0.936492   -1.486678   -0.048571
      6          8           0       -0.662455    0.700775    0.037878
      7          8           0       -1.261458   -0.242056    0.984258
      8          1           0       -1.529463   -0.964803    0.390647
 ---------------------------------------------------------------------

 Alpha  occ. eigenvalues --  -20.53282 -20.52688 -11.24527 -11.17637  -1.47431
 Alpha  occ. eigenvalues --   -1.23649  -1.03885  -0.79660  -0.70926  -0.68318
 Alpha  occ. eigenvalues --   -0.65403  -0.57431  -0.54806  -0.50466  -0.48105
 Alpha  occ. eigenvalues --   -0.37438
 Alpha virt. eigenvalues --    0.16106   0.23998   0.28863   0.29441   0.33112
 Alpha virt. eigenvalues --    0.36966   0.49977   0.57120   0.88420   0.96646
 Alpha virt. eigenvalues --    0.98561   1.06415   1.09568   1.11891   1.24574

 Mulliken charges:
               1
     1  C    0.144860
     2  C   -0.481276
     3  H    0.254803
     4  H    0.231350
     5  H    0.220433
     6  O   -0.408122
     7  O   -0.371688
     8  H    0.409639
 Sum of Mulliken charges =   0.00000

 Dipole moment (field-independent basis, Debye):
    X=              1.2709    Y=             -1.6884    Z=             -0.9763  Tot=              2.3278
 Quadrupole moment (field-independent basis, Debye-Ang):
   XX=            -21.3084   YY=            -20.3961   ZZ=            -27.3746
   XY=              4.1611   XZ=              1.3645   YZ=              0.0556

 Normal termination of Gaussian 09 at Fri Apr 12 17:12:23 2019.
