 Gaussian 09, Revision D.01,
 Gaussian 09:  AS64L-G09RevD.01 24-Apr-2013

 --------------------------------------------------------------------
 #p hf 3-21g scf=tight NoSymmetry guess=read opt=(tight,modredundant)
 --------------------------------------------------------------------

 -----------------------------------
 Geometry optimization at the 2D-PES
 -----------------------------------
 Symbolic Z-matrix:
 Charge =  0 Multiplicity = 1

 SCF Done:  E(RHF) =  -226.396210839     A.U. after   13 cycles
 SCF Done:  E(RHF) =  -226.396212047     A.U. after   11 cycles
 SCF Done:  E(RHF) =  -226.396212718     A.U. after   10 cycles
 SCF Done:  E(RHF) =  -226.396212744     A.U. after    8 cycles
 SCF Done:  E(RHF) =  -226.396212745     A.U. after    6 cycles
 Optimization completed.
    -- Stationary point found.

                          Input orientation:
 ---------------------------------------------------------------------
 Center     Atomic      Atomic             Coordinates (Angstroms)
 Number     Number       Type             X           Y           Z
 ---------------------------------------------------------------------
      1          6           0        0.723925    0.634736    0.053346
      2          6           0        1.367572   -0.504033   -0.003265
      3          1           0        1.179963    1.598950    0.108332
      4          1           0        2.437511   -0.518707   -0.017177
      5          1           0        0.847676   -1.439211   -0.044092
      6          8           0       -0.672720    0.673529   -0.002627
      7          8           0       -1.066672    1.970683    0.560232
      8          1           0       -1.959785    2.039585    0.184283
 ---------------------------------------------------------------------

 Alpha  occ. eigenvalues --  -20.53544 -20.52659 -11.24204 -11.16308  -1.47647
 Alpha  occ. eigenvalues --   -1.24057  -1.02578  -0.79751  -0.70298  -0.67615
 Alpha  occ. eigenvalues --   -0.64478  -0.58322  -0.55410  -0.51233  -0.48033
 Alpha  occ. eigenvalues --   -0.35708
 Alpha virt. eigenvalues --    0.18775   0.23589   0.27873   0.32179   0.33785
 Alpha virt. eigenvalues --    0.36112   0.50057   0.57773   0.90384   0.97356
 Alpha virt. eigenvalues --    1.00368   1.06893   1.11005   1.12428   1.23129

 Mulliken charges:
               1
     1  C    0.171347
     2  C   -0.507732
     3  H    0.260824
     4  H    0.225706
     5  H    0.237566
     6  O   -0.420845
     7  O   -0.389124
     8  H    0.422258
 Sum of Mulliken charges =   0.00000

 Dipole moment (field-independent basis, Debye):
    X=             -0.1822    Y=              0.5699    Z=             -0.6490  Tot=              0.8827
 Quadrupole moment (field-independent basis, Debye-Ang):
   XX=            -17.0900   YY=            -20.9749   ZZ=            -26.3866
   XY=             -2.9374   XZ=              0.5287   YZ=             -1.2709

 Normal termination of Gaussian 09 at Fri Apr 12 15:50:01 2019.
