 Gaussian 09, Revision D.01,
 Gaussian 09:  AS64L-G09RevD.01 24-Apr-2013

 --------------------------------------------------------------------
 #p hf 3-21g scf=tight NoSymmetry guess=read opt=(tight,modredundant)
 --------------------------------------------------------------------

 -----------------------------------
 Geometry optimization at the 2D-PES
 -----------------------------------
 Symbolic Z-matrix:
 Charge =  0 Multiplicity = 1

 SCF Done:  E(RHF) =  -226.393445890     A.U. after   13 cycles
 SCF Done:  E(RHF) =  -226.393452504     A.U. after   12 cycles
 SCF Done:  E(RHF) =  -226.393457048     A.U. after   10 cycles
 SCF Done:  E(RHF) =  -226.393457118     A.U. after    8 cycles
 SCF Done:  E(RHF) =  -226.393457121     A.U. after    7 cycles
 Optimization completed.
    -- Stationary point found.

                          Input orientation:
 ---------------------------------------------------------------------
 Center     Atomic      Atomic             Coordinates (Angstroms)
 Number     Number       Type             X           Y           Z
 ---------------------------------------------------------------------
      1          6           0        0.734426    0.594890    0.061963
      2          6           0        1.399663   -0.527829   -0.027289
      3          1           0        1.190986    1.562006    0.093835
      4          1           0        2.469998   -0.522031   -0.040337
      5          1           0        0.901720   -1.474691   -0.043434
      6          8           0       -0.665003    0.703542    0.028573
      7          8           0       -1.232727   -0.252603    0.989420
      8          1           0       -1.994664   -0.566121    0.473239
 ---------------------------------------------------------------------

 Alpha  occ. eigenvalues --  -20.52849 -20.52264 -11.23916 -11.16939  -1.46843
 Alpha  occ. eigenvalues --   -1.23405  -1.03133  -0.78995  -0.69938  -0.68503
 Alpha  occ. eigenvalues --   -0.64563  -0.57382  -0.54201  -0.51685  -0.46619
 Alpha  occ. eigenvalues --   -0.36683
 Alpha virt. eigenvalues --    0.16507   0.25778   0.29333   0.30097   0.32495
 Alpha virt. eigenvalues --    0.37216   0.50066   0.57438   0.88934   0.97239
 Alpha virt. eigenvalues --    1.00274   1.06946   1.10223   1.12860   1.22472

 Mulliken charges:
               1
     1  C    0.144741
     2  C   -0.472913
     3  H    0.250141
     4  H    0.225240
     5  H    0.238047
     6  O   -0.419343
     7  O   -0.381597
     8  H    0.415683
 Sum of Mulliken charges =   0.00000

 Dipole moment (field-independent basis, Debye):
    X=              0.2331    Y=             -0.9599    Z=             -0.8259  Tot=              1.2876
 Quadrupole moment (field-independent basis, Debye-Ang):
   XX=            -17.5141   YY=            -21.7820   ZZ=            -27.2765
   XY=              3.3971   XZ=              0.6367   YZ=              0.2482

 Normal termination of Gaussian 09 at Fri Apr 12 17:11:30 2019.
