 Gaussian 09, Revision D.01,
 Gaussian 09:  AS64L-G09RevD.01 24-Apr-2013

 --------------------------------------------------------------------
 #p hf 3-21g scf=tight NoSymmetry guess=read opt=(tight,modredundant)
 --------------------------------------------------------------------

 -----------------------------------
 Geometry optimization at the 2D-PES
 -----------------------------------
 Symbolic Z-matrix:
 Charge =  0 Multiplicity = 1

 SCF Done:  E(RHF) =  -226.386103794     A.U. after   13 cycles
 SCF Done:  E(RHF) =  -226.386125319     A.U. after   13 cycles
 SCF Done:  E(RHF) =  -226.386136904     A.U. after   10 cycles
 SCF Done:  E(RHF) =  -226.386137208     A.U. after   10 cycles
 SCF Done:  E(RHF) =  -226.386137257     A.U. after    8 cycles
 SCF Done:  E(RHF) =  -226.386137262     A.U. after    7 cycles
 Optimization completed.
    -- Stationary point found.

                          Input orientation:
 ---------------------------------------------------------------------
 Center     Atomic      Atomic             Coordinates (Angstroms)
 Number     Number       Type             X           Y           Z
 ---------------------------------------------------------------------
      1          6           0        0.735774    0.635206    0.032309
      2          6           0        1.380867   -0.503855   -0.015909
      3          1           0        1.200664    1.598160    0.072691
      4          1           0        2.451040   -0.529715    0.013825
      5          1           0        0.851776   -1.434842   -0.054015
      6          8           0       -0.673567    0.656420    0.045351
      7          8           0       -1.135474    1.192096   -1.250047
      8          1           0       -0.525044    0.782423   -1.892115
 ---------------------------------------------------------------------

 Alpha  occ. eigenvalues --  -20.53140 -20.52105 -11.25014 -11.19358  -1.46898
 Alpha  occ. eigenvalues --   -1.23468  -1.04736  -0.80994  -0.72412  -0.66504
 Alpha  occ. eigenvalues --   -0.62366  -0.59576  -0.56141  -0.51792  -0.45054
 Alpha  occ. eigenvalues --   -0.39686
 Alpha virt. eigenvalues --    0.14409   0.26251   0.27153   0.30054   0.30946
 Alpha virt. eigenvalues --    0.35730   0.48640   0.55505   0.87912   0.96752
 Alpha virt. eigenvalues --    0.97592   1.05413   1.08754   1.10761   1.23922

 Mulliken charges:
               1
     1  C    0.080294
     2  C   -0.458833
     3  H    0.247786
     4  H    0.235206
     5  H    0.252998
     6  O   -0.378751
     7  O   -0.376764
     8  H    0.398063
 Sum of Mulliken charges =   0.00000

 Dipole moment (field-independent basis, Debye):
    X=              3.2995    Y=             -1.0225    Z=             -1.3791  Tot=              3.7194
 Quadrupole moment (field-independent basis, Debye-Ang):
   XX=            -24.9519   YY=            -23.6777   ZZ=            -21.3666
   XY=              2.9518   XZ=             -0.6298   YZ=              0.1525

 Normal termination of Gaussian 09 at Fri Apr 12 15:11:31 2019.
