 Gaussian 09, Revision D.01,
 Gaussian 09:  AS64L-G09RevD.01 24-Apr-2013

 --------------------------------------------------------------------
 #p hf 3-21g scf=tight NoSymmetry guess=read opt=(tight,modredundant)
 --------------------------------------------------------------------

 -----------------------------------
 Geometry optimization at the 2D-PES
 -----------------------------------
 Symbolic Z-matrix:
 Charge =  0 Multiplicity = 1

 SCF Done:  E(RHF) =  -226.387753010     A.U. after   13 cycles
 SCF Done:  E(RHF) =  -226.387771527     A.U. after   13 cycles
 SCF Done:  E(RHF) =  -226.387782848     A.U. after   10 cycles
 SCF Done:  E(RHF) =  -226.387783080     A.U. after    9 cycles
 SCF Done:  E(RHF) =  -226.387783123     A.U. after    8 cycles
 SCF Done:  E(RHF) =  -226.387783127     A.U. after    7 cycles
 Optimization completed.
    -- Stationary point found.

                          Input orientation:
 ---------------------------------------------------------------------
 Center     Atomic      Atomic             Coordinates (Angstroms)
 Number     Number       Type             X           Y           Z
 ---------------------------------------------------------------------
      1          6           0        0.731956    0.635265    0.032651
      2          6           0        1.377889   -0.503137   -0.018593
      3          1           0        1.194274    1.599189    0.066689
      4          1           0        2.448170   -0.527888    0.006575
      5          1           0        0.850385   -1.435304   -0.052654
      6          8           0       -0.677898    0.654956    0.047720
      7          8           0       -1.128033    1.193286   -1.248482
      8          1           0       -0.623946    0.659056   -1.891253
 ---------------------------------------------------------------------

 Alpha  occ. eigenvalues --  -20.53181 -20.52180 -11.24935 -11.19201  -1.47046
 Alpha  occ. eigenvalues --   -1.23438  -1.04626  -0.80799  -0.72505  -0.66190
 Alpha  occ. eigenvalues --   -0.62833  -0.59781  -0.56142  -0.51128  -0.45397
 Alpha  occ. eigenvalues --   -0.39637
 Alpha virt. eigenvalues --    0.14689   0.26019   0.27241   0.30227   0.31096
 Alpha virt. eigenvalues --    0.35734   0.48642   0.55567   0.88050   0.96636
 Alpha virt. eigenvalues --    0.97843   1.05564   1.08863   1.10612   1.23986

 Mulliken charges:
               1
     1  C    0.089379
     2  C   -0.463327
     3  H    0.248707
     4  H    0.234926
     5  H    0.250220
     6  O   -0.381120
     7  O   -0.377057
     8  H    0.398272
 Sum of Mulliken charges =   0.00000

 Dipole moment (field-independent basis, Debye):
    X=              3.0685    Y=             -1.2276    Z=             -1.3973  Tot=              3.5882
 Quadrupole moment (field-independent basis, Debye-Ang):
   XX=            -24.7427   YY=            -24.0169   ZZ=            -21.3672
   XY=              2.9808   XZ=             -0.2125   YZ=              0.6488

 Normal termination of Gaussian 09 at Fri Apr 12 15:11:59 2019.
