 Gaussian 09, Revision D.01,
 Gaussian 09:  AS64L-G09RevD.01 24-Apr-2013

 --------------------------------------------------------------------
 #p hf 3-21g scf=tight NoSymmetry guess=read opt=(tight,modredundant)
 --------------------------------------------------------------------

 -----------------------------------
 Geometry optimization at the 2D-PES
 -----------------------------------
 Symbolic Z-matrix:
 Charge =  0 Multiplicity = 1

 SCF Done:  E(RHF) =  -226.384864695     A.U. after   13 cycles
 SCF Done:  E(RHF) =  -226.384879057     A.U. after   12 cycles
 SCF Done:  E(RHF) =  -226.384887928     A.U. after   10 cycles
 SCF Done:  E(RHF) =  -226.384888134     A.U. after    9 cycles
 SCF Done:  E(RHF) =  -226.384888146     A.U. after    8 cycles
 SCF Done:  E(RHF) =  -226.384888148     A.U. after    8 cycles
 Optimization completed.
    -- Stationary point found.

                          Input orientation:
 ---------------------------------------------------------------------
 Center     Atomic      Atomic             Coordinates (Angstroms)
 Number     Number       Type             X           Y           Z
 ---------------------------------------------------------------------
      1          6           0        0.731884    0.629070    0.036911
      2          6           0        1.384511   -0.506561   -0.013427
      3          1           0        1.196883    1.591968    0.066149
      4          1           0        2.455158   -0.524639   -0.002235
      5          1           0        0.864916   -1.444421   -0.030761
      6          8           0       -0.679518    0.655449    0.038773
      7          8           0       -1.153179    0.725841   -1.358226
      8          1           0       -0.545672    0.123364   -1.827467
 ---------------------------------------------------------------------

 Alpha  occ. eigenvalues --  -20.52913 -20.52043 -11.25196 -11.19601  -1.46704
 Alpha  occ. eigenvalues --   -1.23329  -1.05039  -0.80901  -0.72526  -0.66622
 Alpha  occ. eigenvalues --   -0.62262  -0.59562  -0.56345  -0.51670  -0.44660
 Alpha  occ. eigenvalues --   -0.40130
 Alpha virt. eigenvalues --    0.14021   0.25444   0.27653   0.30217   0.30372
 Alpha virt. eigenvalues --    0.36057   0.49040   0.54976   0.87640   0.96292
 Alpha virt. eigenvalues --    0.98355   1.04890   1.08352   1.10769   1.23480

 Mulliken charges:
               1
     1  C    0.089464
     2  C   -0.465595
     3  H    0.248620
     4  H    0.237635
     5  H    0.249163
     6  O   -0.382382
     7  O   -0.373866
     8  H    0.396962
 Sum of Mulliken charges =   0.00000

 Dipole moment (field-independent basis, Debye):
    X=              3.3221    Y=             -1.3969    Z=             -1.0487  Tot=              3.7534
 Quadrupole moment (field-independent basis, Debye-Ang):
   XX=            -24.9574   YY=            -23.0320   ZZ=            -22.4844
   XY=              2.6501   XZ=             -0.9398   YZ=              1.6682

 Normal termination of Gaussian 09 at Fri Apr 12 15:05:24 2019.
