 Gaussian 09, Revision D.01,
 Gaussian 09:  AS64L-G09RevD.01 24-Apr-2013

 --------------------------------------------------------------------
 #p hf 3-21g scf=tight NoSymmetry guess=read opt=(tight,modredundant)
 --------------------------------------------------------------------

 -----------------------------------
 Geometry optimization at the 2D-PES
 -----------------------------------
 Symbolic Z-matrix:
 Charge =  0 Multiplicity = 1

 SCF Done:  E(RHF) =  -226.382902581     A.U. after   13 cycles
 SCF Done:  E(RHF) =  -226.382918267     A.U. after   13 cycles
 SCF Done:  E(RHF) =  -226.382935986     A.U. after   12 cycles
 SCF Done:  E(RHF) =  -226.382936091     A.U. after    9 cycles
 SCF Done:  E(RHF) =  -226.382936113     A.U. after    8 cycles
 SCF Done:  E(RHF) =  -226.382936114     A.U. after    6 cycles
 Optimization completed.
    -- Stationary point found.

                          Input orientation:
 ---------------------------------------------------------------------
 Center     Atomic      Atomic             Coordinates (Angstroms)
 Number     Number       Type             X           Y           Z
 ---------------------------------------------------------------------
      1          6           0        0.760699    0.630972    0.062984
      2          6           0        1.381504   -0.518876    0.003244
      3          1           0        1.267605    1.576128    0.090933
      4          1           0        2.450462   -0.560451   -0.029877
      5          1           0        0.834750   -1.438854   -0.024593
      6          8           0       -0.637496    0.699820   -0.015597
      7          8           0       -1.150677    1.848417    0.738952
      8          1           0       -0.513560    2.562726    0.552050
 ---------------------------------------------------------------------

 Alpha  occ. eigenvalues --  -20.54020 -20.53018 -11.25557 -11.17912  -1.47893
 Alpha  occ. eigenvalues --   -1.24377  -1.04096  -0.81815  -0.71281  -0.67934
 Alpha  occ. eigenvalues --   -0.63944  -0.57924  -0.56088  -0.51963  -0.48512
 Alpha  occ. eigenvalues --   -0.37171
 Alpha virt. eigenvalues --    0.17007   0.23217   0.24080   0.30952   0.34239
 Alpha virt. eigenvalues --    0.35430   0.50904   0.56322   0.88911   0.95936
 Alpha virt. eigenvalues --    0.99173   1.05549   1.09893   1.11099   1.23822

 Mulliken charges:
               1
     1  C    0.128357
     2  C   -0.482313
     3  H    0.221368
     4  H    0.230532
     5  H    0.252322
     6  O   -0.383317
     7  O   -0.364356
     8  H    0.397407
 Sum of Mulliken charges =   0.00000

 Dipole moment (field-independent basis, Debye):
    X=              3.1112    Y=              1.3950    Z=             -0.2182  Tot=              3.4166
 Quadrupole moment (field-independent basis, Debye-Ang):
   XX=            -25.0917   YY=            -15.3755   ZZ=            -26.2959
   XY=              2.7380   XZ=              0.9894   YZ=              0.3842

 Normal termination of Gaussian 09 at Fri Apr 12 15:55:51 2019.
