 Gaussian 09, Revision D.01,
 Gaussian 09:  AS64L-G09RevD.01 24-Apr-2013

 --------------------------------------------------------------------
 #p hf 3-21g scf=tight NoSymmetry guess=read opt=(tight,modredundant)
 --------------------------------------------------------------------

 -----------------------------------
 Geometry optimization at the 2D-PES
 -----------------------------------
 Symbolic Z-matrix:
 Charge =  0 Multiplicity = 1

 SCF Done:  E(RHF) =  -226.387002226     A.U. after   13 cycles
 SCF Done:  E(RHF) =  -226.387009422     A.U. after   13 cycles
 SCF Done:  E(RHF) =  -226.387087450     A.U. after   12 cycles
 SCF Done:  E(RHF) =  -226.387087953     A.U. after   10 cycles
 SCF Done:  E(RHF) =  -226.387088042     A.U. after    9 cycles
 SCF Done:  E(RHF) =  -226.387088048     A.U. after    7 cycles
 SCF Done:  E(RHF) =  -226.387088049     A.U. after    6 cycles
 Optimization completed.
    -- Stationary point found.

                          Input orientation:
 ---------------------------------------------------------------------
 Center     Atomic      Atomic             Coordinates (Angstroms)
 Number     Number       Type             X           Y           Z
 ---------------------------------------------------------------------
      1          6           0        0.745559    0.574649    0.027317
      2          6           0        1.442583   -0.534728   -0.042553
      3          1           0        1.179296    1.551296    0.076348
      4          1           0        2.511261   -0.492549   -0.032381
      5          1           0        0.989520   -1.498339   -0.153233
      6          8           0       -0.641878    0.695166    0.043646
      7          8           0       -1.311957   -0.543587    0.437418
      8          1           0       -0.671199   -0.973130    1.036403
 ---------------------------------------------------------------------

 Alpha  occ. eigenvalues --  -20.54634 -20.53315 -11.26252 -11.18189  -1.48651
 Alpha  occ. eigenvalues --   -1.24688  -1.05184  -0.81314  -0.72722  -0.68473
 Alpha  occ. eigenvalues --   -0.64280  -0.57954  -0.55825  -0.53676  -0.48487
 Alpha  occ. eigenvalues --   -0.37569
 Alpha virt. eigenvalues --    0.17160   0.22489   0.27584   0.28696   0.32483
 Alpha virt. eigenvalues --    0.36625   0.49411   0.57775   0.87700   0.95934
 Alpha virt. eigenvalues --    1.00709   1.05239   1.08182   1.11149   1.23482

 Mulliken charges:
               1
     1  C    0.136544
     2  C   -0.537033
     3  H    0.270784
     4  H    0.236955
     5  H    0.234110
     6  O   -0.387213
     7  O   -0.362946
     8  H    0.408799
 Sum of Mulliken charges =   0.00000

 Dipole moment (field-independent basis, Debye):
    X=              2.9498    Y=             -0.8487    Z=              1.2235  Tot=              3.3043
 Quadrupole moment (field-independent basis, Debye-Ang):
   XX=            -25.6461   YY=            -20.8612   ZZ=            -23.8673
   XY=              1.5861   XZ=             -0.2743   YZ=             -1.4162

 Normal termination of Gaussian 09 at Fri Apr 12 17:41:58 2019.
