 Gaussian 09, Revision D.01,
 Gaussian 09:  AS64L-G09RevD.01 24-Apr-2013

 --------------------------------------------------------------------
 #p hf 3-21g scf=tight NoSymmetry guess=read opt=(tight,modredundant)
 --------------------------------------------------------------------

 -----------------------------------
 Geometry optimization at the 2D-PES
 -----------------------------------
 Symbolic Z-matrix:
 Charge =  0 Multiplicity = 1

 SCF Done:  E(RHF) =  -226.386182938     A.U. after   13 cycles
 SCF Done:  E(RHF) =  -226.386195231     A.U. after   12 cycles
 SCF Done:  E(RHF) =  -226.386204705     A.U. after   10 cycles
 SCF Done:  E(RHF) =  -226.386204846     A.U. after    9 cycles
 SCF Done:  E(RHF) =  -226.386204859     A.U. after    8 cycles
 SCF Done:  E(RHF) =  -226.386204861     A.U. after    8 cycles
 Optimization completed.
    -- Stationary point found.

                          Input orientation:
 ---------------------------------------------------------------------
 Center     Atomic      Atomic             Coordinates (Angstroms)
 Number     Number       Type             X           Y           Z
 ---------------------------------------------------------------------
      1          6           0        0.728748    0.628501    0.036922
      2          6           0        1.381690   -0.506564   -0.015737
      3          1           0        1.192725    1.591726    0.061645
      4          1           0        2.452324   -0.524113   -0.007889
      5          1           0        0.863961   -1.445672   -0.029698
      6          8           0       -0.683292    0.655090    0.040652
      7          8           0       -1.146949    0.727258   -1.357540
      8          1           0       -0.647379    0.007230   -1.786147
 ---------------------------------------------------------------------

 Alpha  occ. eigenvalues --  -20.52953 -20.52116 -11.25106 -11.19444  -1.46834
 Alpha  occ. eigenvalues --   -1.23302  -1.04921  -0.80727  -0.72572  -0.66322
 Alpha  occ. eigenvalues --   -0.62891  -0.59640  -0.56318  -0.50988  -0.45059
 Alpha  occ. eigenvalues --   -0.40030
 Alpha virt. eigenvalues --    0.14227   0.25095   0.27825   0.30303   0.30760
 Alpha virt. eigenvalues --    0.36024   0.49049   0.55103   0.87724   0.96243
 Alpha virt. eigenvalues --    0.98464   1.05168   1.08489   1.10674   1.23851

 Mulliken charges:
               1
     1  C    0.098990
     2  C   -0.469257
     3  H    0.248941
     4  H    0.237441
     5  H    0.245222
     6  O   -0.384708
     7  O   -0.373917
     8  H    0.397289
 Sum of Mulliken charges =   0.00000

 Dipole moment (field-independent basis, Debye):
    X=              3.0910    Y=             -1.5976    Z=             -0.9862  Tot=              3.6165
 Quadrupole moment (field-independent basis, Debye-Ang):
   XX=            -24.7248   YY=            -23.0362   ZZ=            -22.8060
   XY=              2.8197   XZ=             -0.5866   YZ=              2.1125

 Normal termination of Gaussian 09 at Fri Apr 12 15:05:36 2019.
