 Gaussian 09, Revision D.01,
 Gaussian 09:  AS64L-G09RevD.01 24-Apr-2013

 --------------------------------------------------------------------
 #p hf 3-21g scf=tight NoSymmetry guess=read opt=(tight,modredundant)
 --------------------------------------------------------------------

 -----------------------------------
 Geometry optimization at the 2D-PES
 -----------------------------------
 Symbolic Z-matrix:
 Charge =  0 Multiplicity = 1

 SCF Done:  E(RHF) =  -226.391617079     A.U. after   12 cycles
 SCF Done:  E(RHF) =  -226.391629102     A.U. after   12 cycles
 SCF Done:  E(RHF) =  -226.391641902     A.U. after   11 cycles
 SCF Done:  E(RHF) =  -226.391641968     A.U. after    8 cycles
 SCF Done:  E(RHF) =  -226.391641977     A.U. after    8 cycles
 SCF Done:  E(RHF) =  -226.391641978     A.U. after    7 cycles
 Optimization completed.
    -- Stationary point found.

                          Input orientation:
 ---------------------------------------------------------------------
 Center     Atomic      Atomic             Coordinates (Angstroms)
 Number     Number       Type             X           Y           Z
 ---------------------------------------------------------------------
      1          6           0        0.738913    0.636680    0.025292
      2          6           0        1.374054   -0.507029   -0.013348
      3          1           0        1.204378    1.595481    0.105431
      4          1           0        2.443510   -0.531933    0.019519
      5          1           0        0.847266   -1.437674   -0.070288
      6          8           0       -0.666139    0.679513    0.033568
      7          8           0       -1.082274    2.065266   -0.162281
      8          1           0       -0.991824    2.172641   -1.126824
 ---------------------------------------------------------------------

 Alpha  occ. eigenvalues --  -20.54039 -20.53311 -11.24785 -11.17073  -1.48395
 Alpha  occ. eigenvalues --   -1.24168  -1.03403  -0.80467  -0.72309  -0.66102
 Alpha  occ. eigenvalues --   -0.65464  -0.58071  -0.54903  -0.52282  -0.48609
 Alpha  occ. eigenvalues --   -0.36672
 Alpha virt. eigenvalues --    0.18050   0.22582   0.26994   0.31569   0.33493
 Alpha virt. eigenvalues --    0.35565   0.49408   0.57125   0.89577   0.96577
 Alpha virt. eigenvalues --    0.99409   1.05992   1.10177   1.11021   1.24773

 Mulliken charges:
               1
     1  C    0.131871
     2  C   -0.502231
     3  H    0.256418
     4  H    0.228981
     5  H    0.243254
     6  O   -0.393545
     7  O   -0.371746
     8  H    0.406997
 Sum of Mulliken charges =   0.00000

 Dipole moment (field-independent basis, Debye):
    X=              1.9335    Y=              0.5389    Z=             -2.0158  Tot=              2.8447
 Quadrupole moment (field-independent basis, Debye-Ang):
   XX=            -23.5852   YY=            -20.7097   ZZ=            -22.9132
   XY=              1.3539   XZ=              2.3012   YZ=             -4.3987

 Normal termination of Gaussian 09 at Fri Apr 12 15:35:44 2019.
