 Gaussian 09, Revision D.01,
 Gaussian 09:  AS64L-G09RevD.01 24-Apr-2013

 --------------------------------------------------------------------
 #p hf 3-21g scf=tight NoSymmetry guess=read opt=(tight,modredundant)
 --------------------------------------------------------------------

 -----------------------------------
 Geometry optimization at the 2D-PES
 -----------------------------------
 Symbolic Z-matrix:
 Charge =  0 Multiplicity = 1

 SCF Done:  E(RHF) =  -226.389236255     A.U. after   13 cycles
 SCF Done:  E(RHF) =  -226.389273360     A.U. after   12 cycles
 SCF Done:  E(RHF) =  -226.389328614     A.U. after   12 cycles
 SCF Done:  E(RHF) =  -226.389328862     A.U. after   10 cycles
 SCF Done:  E(RHF) =  -226.389328919     A.U. after    8 cycles
 SCF Done:  E(RHF) =  -226.389328926     A.U. after    7 cycles
 Optimization completed.
    -- Stationary point found.

                          Input orientation:
 ---------------------------------------------------------------------
 Center     Atomic      Atomic             Coordinates (Angstroms)
 Number     Number       Type             X           Y           Z
 ---------------------------------------------------------------------
      1          6           0        0.742697    0.562676    0.070574
      2          6           0        1.447300   -0.535913   -0.046933
      3          1           0        1.175885    1.540816    0.092909
      4          1           0        2.514362   -0.474400   -0.090367
      5          1           0        1.021491   -1.517085   -0.042195
      6          8           0       -0.644571    0.701723    0.065247
      7          8           0       -1.332355   -0.545498    0.372086
      8          1           0       -1.035518   -1.144838   -0.337166
 ---------------------------------------------------------------------

 Alpha  occ. eigenvalues --  -20.54698 -20.53516 -11.25789 -11.17722  -1.48853
 Alpha  occ. eigenvalues --   -1.24698  -1.04713  -0.80822  -0.72505  -0.68320
 Alpha  occ. eigenvalues --   -0.65855  -0.57478  -0.54202  -0.53699  -0.49118
 Alpha  occ. eigenvalues --   -0.37328
 Alpha virt. eigenvalues --    0.17894   0.21789   0.27700   0.28252   0.34543
 Alpha virt. eigenvalues --    0.36761   0.49432   0.58702   0.88139   0.96029
 Alpha virt. eigenvalues --    0.99604   1.05889   1.08832   1.11140   1.25014

 Mulliken charges:
               1
     1  C    0.150625
     2  C   -0.524012
     3  H    0.268491
     4  H    0.235515
     5  H    0.214711
     6  O   -0.393795
     7  O   -0.362287
     8  H    0.410753
 Sum of Mulliken charges =   0.00000

 Dipole moment (field-independent basis, Debye):
    X=              2.2004    Y=             -1.2090    Z=             -1.3202  Tot=              2.8366
 Quadrupole moment (field-independent basis, Debye-Ang):
   XX=            -24.5083   YY=            -20.1634   ZZ=            -25.7810
   XY=              2.7629   XZ=              1.8026   YZ=              1.5215

 Normal termination of Gaussian 09 at Fri Apr 12 17:33:19 2019.
