 Gaussian 09, Revision D.01,
 Gaussian 09:  AS64L-G09RevD.01 24-Apr-2013

 --------------------------------------------------------------------
 #p hf 3-21g scf=tight NoSymmetry guess=read opt=(tight,modredundant)
 --------------------------------------------------------------------

 -----------------------------------
 Geometry optimization at the 2D-PES
 -----------------------------------
 Symbolic Z-matrix:
 Charge =  0 Multiplicity = 1

 SCF Done:  E(RHF) =  -226.381978732     A.U. after   13 cycles
 SCF Done:  E(RHF) =  -226.382005356     A.U. after   13 cycles
 SCF Done:  E(RHF) =  -226.382017912     A.U. after   11 cycles
 SCF Done:  E(RHF) =  -226.382018637     A.U. after   10 cycles
 SCF Done:  E(RHF) =  -226.382018696     A.U. after    9 cycles
 SCF Done:  E(RHF) =  -226.382018697     A.U. after    6 cycles
 Optimization completed.
    -- Stationary point found.

                          Input orientation:
 ---------------------------------------------------------------------
 Center     Atomic      Atomic             Coordinates (Angstroms)
 Number     Number       Type             X           Y           Z
 ---------------------------------------------------------------------
      1          6           0        0.753510    0.551416    0.042158
      2          6           0        1.487030   -0.532262   -0.048576
      3          1           0        1.176010    1.531885    0.111842
      4          1           0        2.552474   -0.438763   -0.050667
      5          1           0        1.108429   -1.532803   -0.098737
      6          8           0       -0.626563    0.694255    0.041491
      7          8           0       -1.395682   -0.542063   -0.077826
      8          1           0       -0.748299   -1.232240   -0.296969
 ---------------------------------------------------------------------

 Alpha  occ. eigenvalues --  -20.55002 -20.53437 -11.26720 -11.18317  -1.48796
 Alpha  occ. eigenvalues --   -1.25319  -1.05482  -0.81642  -0.73685  -0.68278
 Alpha  occ. eigenvalues --   -0.64642  -0.58652  -0.54797  -0.54078  -0.49444
 Alpha  occ. eigenvalues --   -0.37282
 Alpha virt. eigenvalues --    0.18221   0.20565   0.26542   0.27238   0.36122
 Alpha virt. eigenvalues --    0.37070   0.49275   0.61133   0.88003   0.95153
 Alpha virt. eigenvalues --    1.01534   1.05323   1.07631   1.10698   1.23879

 Mulliken charges:
               1
     1  C    0.151941
     2  C   -0.541996
     3  H    0.275818
     4  H    0.243293
     5  H    0.205640
     6  O   -0.389944
     7  O   -0.362847
     8  H    0.418095
 Sum of Mulliken charges =   0.00000

 Dipole moment (field-independent basis, Debye):
    X=              2.8802    Y=             -1.2884    Z=             -0.4116  Tot=              3.1819
 Quadrupole moment (field-independent basis, Debye-Ang):
   XX=            -25.8151   YY=            -19.6553   ZZ=            -25.6942
   XY=              2.1838   XZ=              0.3690   YZ=              0.9711

 Normal termination of Gaussian 09 at Fri Apr 12 17:54:20 2019.
