 Gaussian 09, Revision D.01,
 Gaussian 09:  AS64L-G09RevD.01 24-Apr-2013

 --------------------------------------------------------------------
 #p hf 3-21g scf=tight NoSymmetry guess=read opt=(tight,modredundant)
 --------------------------------------------------------------------

 -----------------------------------
 Geometry optimization at the 2D-PES
 -----------------------------------
 Symbolic Z-matrix:
 Charge =  0 Multiplicity = 1

 SCF Done:  E(RHF) =  -226.395810232     A.U. after   13 cycles
 SCF Done:  E(RHF) =  -226.395812180     A.U. after   11 cycles
 SCF Done:  E(RHF) =  -226.395814085     A.U. after   10 cycles
 SCF Done:  E(RHF) =  -226.395814109     A.U. after    8 cycles
 SCF Done:  E(RHF) =  -226.395814110     A.U. after    6 cycles
 Optimization completed.
    -- Stationary point found.

                          Input orientation:
 ---------------------------------------------------------------------
 Center     Atomic      Atomic             Coordinates (Angstroms)
 Number     Number       Type             X           Y           Z
 ---------------------------------------------------------------------
      1          6           0        0.720975    0.637156    0.025159
      2          6           0        1.366101   -0.501374   -0.019501
      3          1           0        1.177109    1.601298    0.079649
      4          1           0        2.435533   -0.517150    0.016803
      5          1           0        0.848118   -1.436635   -0.080463
      6          8           0       -0.677629    0.669793    0.052490
      7          8           0       -1.064091    2.016813   -0.384190
      8          1           0       -1.919060    1.812310   -0.797973
 ---------------------------------------------------------------------

 Alpha  occ. eigenvalues --  -20.53544 -20.52637 -11.24262 -11.16389  -1.47641
 Alpha  occ. eigenvalues --   -1.24034  -1.02659  -0.79789  -0.70853  -0.66927
 Alpha  occ. eigenvalues --   -0.63282  -0.60528  -0.55352  -0.50127  -0.48263
 Alpha  occ. eigenvalues --   -0.35924
 Alpha virt. eigenvalues --    0.18924   0.23350   0.27680   0.32055   0.33936
 Alpha virt. eigenvalues --    0.36023   0.50025   0.57694   0.90310   0.97298
 Alpha virt. eigenvalues --    1.00176   1.07023   1.10933   1.12618   1.22544

 Mulliken charges:
               1
     1  C    0.169490
     2  C   -0.508361
     3  H    0.262714
     4  H    0.226199
     5  H    0.236270
     6  O   -0.419035
     7  O   -0.389615
     8  H    0.422338
 Sum of Mulliken charges =   0.00000

 Dipole moment (field-independent basis, Debye):
    X=             -0.0937    Y=             -0.0007    Z=             -0.9947  Tot=              0.9991
 Quadrupole moment (field-independent basis, Debye-Ang):
   XX=            -17.4605   YY=            -23.3133   ZZ=            -24.6544
   XY=             -1.6098   XZ=              2.9078   YZ=             -1.4133

 Normal termination of Gaussian 09 at Fri Apr 12 15:29:56 2019.
