 Gaussian 09, Revision D.01,
 Gaussian 09:  AS64L-G09RevD.01 24-Apr-2013

 --------------------------------------------------------------------
 #p hf 3-21g scf=tight NoSymmetry guess=read opt=(tight,modredundant)
 --------------------------------------------------------------------

 -----------------------------------
 Geometry optimization at the 2D-PES
 -----------------------------------
 Symbolic Z-matrix:
 Charge =  0 Multiplicity = 1

 SCF Done:  E(RHF) =  -226.389854066     A.U. after   12 cycles
 SCF Done:  E(RHF) =  -226.389859802     A.U. after   11 cycles
 SCF Done:  E(RHF) =  -226.389864474     A.U. after   10 cycles
 SCF Done:  E(RHF) =  -226.389864495     A.U. after    7 cycles
 SCF Done:  E(RHF) =  -226.389864499     A.U. after    8 cycles
 Optimization completed.
    -- Stationary point found.

                          Input orientation:
 ---------------------------------------------------------------------
 Center     Atomic      Atomic             Coordinates (Angstroms)
 Number     Number       Type             X           Y           Z
 ---------------------------------------------------------------------
      1          6           0        0.743145    0.604912    0.055021
      2          6           0        1.399257   -0.523517   -0.021130
      3          1           0        1.206867    1.569778    0.086108
      4          1           0        2.470108   -0.531629   -0.026473
      5          1           0        0.884291   -1.461595   -0.054510
      6          8           0       -0.666549    0.693706    0.019816
      7          8           0       -1.226304   -0.066804    1.143230
      8          1           0       -1.264534    0.614427    1.838113
 ---------------------------------------------------------------------

 Alpha  occ. eigenvalues --  -20.52728 -20.52110 -11.23947 -11.17683  -1.46758
 Alpha  occ. eigenvalues --   -1.23010  -1.03539  -0.79949  -0.69929  -0.67850
 Alpha  occ. eigenvalues --   -0.61923  -0.60370  -0.55959  -0.47861  -0.47126
 Alpha  occ. eigenvalues --   -0.38027
 Alpha virt. eigenvalues --    0.15504   0.26048   0.28946   0.29888   0.32159
 Alpha virt. eigenvalues --    0.36862   0.49764   0.56762   0.88236   0.96762
 Alpha virt. eigenvalues --    0.99297   1.06314   1.09848   1.11743   1.23939

 Mulliken charges:
               1
     1  C    0.105298
     2  C   -0.455142
     3  H    0.240666
     4  H    0.226098
     5  H    0.256298
     6  O   -0.399998
     7  O   -0.378769
     8  H    0.405549
 Sum of Mulliken charges =   0.00000

 Dipole moment (field-independent basis, Debye):
    X=              1.9017    Y=              0.9978    Z=              1.6866  Tot=              2.7307
 Quadrupole moment (field-independent basis, Debye-Ang):
   XX=            -22.7727   YY=            -21.4640   ZZ=            -21.0675
   XY=             -0.6983   XZ=             -2.1148   YZ=              2.9764

 Normal termination of Gaussian 09 at Fri Apr 12 17:02:50 2019.
