 Gaussian 09, Revision D.01,
 Gaussian 09:  AS64L-G09RevD.01 24-Apr-2013

 --------------------------------------------------------------------
 #p hf 3-21g scf=tight NoSymmetry guess=read opt=(tight,modredundant)
 --------------------------------------------------------------------

 -----------------------------------
 Geometry optimization at the 2D-PES
 -----------------------------------
 Symbolic Z-matrix:
 Charge =  0 Multiplicity = 1

 SCF Done:  E(RHF) =  -226.381787000     A.U. after   12 cycles
 SCF Done:  E(RHF) =  -226.381798142     A.U. after   13 cycles
 SCF Done:  E(RHF) =  -226.381882605     A.U. after   12 cycles
 SCF Done:  E(RHF) =  -226.381883114     A.U. after   10 cycles
 SCF Done:  E(RHF) =  -226.381883193     A.U. after    8 cycles
 SCF Done:  E(RHF) =  -226.381883200     A.U. after    7 cycles
 Optimization completed.
    -- Stationary point found.

                          Input orientation:
 ---------------------------------------------------------------------
 Center     Atomic      Atomic             Coordinates (Angstroms)
 Number     Number       Type             X           Y           Z
 ---------------------------------------------------------------------
      1          6           0        0.752770    0.562399    0.029411
      2          6           0        1.471310   -0.532326   -0.052790
      3          1           0        1.183168    1.540920    0.071292
      4          1           0        2.538346   -0.459566   -0.060269
      5          1           0        1.064973   -1.519153   -0.149279
      6          8           0       -0.630880    0.693495    0.059503
      7          8           0       -1.362914   -0.513228    0.446588
      8          1           0       -0.680597   -1.186670    0.608824
 ---------------------------------------------------------------------

 Alpha  occ. eigenvalues --  -20.54689 -20.53277 -11.26648 -11.18493  -1.48501
 Alpha  occ. eigenvalues --   -1.25066  -1.05516  -0.81548  -0.73563  -0.68246
 Alpha  occ. eigenvalues --   -0.64087  -0.58856  -0.54655  -0.54434  -0.48851
 Alpha  occ. eigenvalues --   -0.37463
 Alpha virt. eigenvalues --    0.17108   0.21467   0.26923   0.27609   0.35129
 Alpha virt. eigenvalues --    0.36833   0.49456   0.59700   0.87814   0.95233
 Alpha virt. eigenvalues --    1.01392   1.05298   1.07712   1.10833   1.23456

 Mulliken charges:
               1
     1  C    0.148014
     2  C   -0.540833
     3  H    0.273831
     4  H    0.242881
     5  H    0.213545
     6  O   -0.389847
     7  O   -0.363095
     8  H    0.415504
 Sum of Mulliken charges =   0.00000

 Dipole moment (field-independent basis, Debye):
    X=              3.0196    Y=             -1.2878    Z=              0.3588  Tot=              3.3023
 Quadrupole moment (field-independent basis, Debye-Ang):
   XX=            -25.7916   YY=            -19.8004   ZZ=            -25.4600
   XY=              2.0115   XZ=              0.3681   YZ=             -0.8302

 Normal termination of Gaussian 09 at Fri Apr 12 17:43:11 2019.
