 Gaussian 09, Revision D.01,
 Gaussian 09:  AS64L-G09RevD.01 24-Apr-2013

 --------------------------------------------------------------------
 #p hf 3-21g scf=tight NoSymmetry guess=read opt=(tight,modredundant)
 --------------------------------------------------------------------

 -----------------------------------
 Geometry optimization at the 2D-PES
 -----------------------------------
 Symbolic Z-matrix:
 Charge =  0 Multiplicity = 1

 SCF Done:  E(RHF) =  -226.395370087     A.U. after   13 cycles
 SCF Done:  E(RHF) =  -226.395377288     A.U. after   11 cycles
 SCF Done:  E(RHF) =  -226.395381639     A.U. after   10 cycles
 SCF Done:  E(RHF) =  -226.395381705     A.U. after    8 cycles
 SCF Done:  E(RHF) =  -226.395381709     A.U. after    6 cycles
 Optimization completed.
    -- Stationary point found.

                          Input orientation:
 ---------------------------------------------------------------------
 Center     Atomic      Atomic             Coordinates (Angstroms)
 Number     Number       Type             X           Y           Z
 ---------------------------------------------------------------------
      1          6           0        0.730805    0.634355    0.052745
      2          6           0        1.369076   -0.506489    0.003891
      3          1           0        1.195211    1.594304    0.126570
      4          1           0        2.439134   -0.533585   -0.011941
      5          1           0        0.836094   -1.434121   -0.037401
      6          8           0       -0.670295    0.671876   -0.023428
      7          8           0       -1.116214    1.508072    1.100767
      8          1           0       -1.713714    2.115333    0.632271
 ---------------------------------------------------------------------

 Alpha  occ. eigenvalues --  -20.53104 -20.52183 -11.23992 -11.17148  -1.47096
 Alpha  occ. eigenvalues --   -1.23560  -1.02936  -0.79566  -0.69449  -0.68674
 Alpha  occ. eigenvalues --   -0.65051  -0.56520  -0.54831  -0.51684  -0.46731
 Alpha  occ. eigenvalues --   -0.37070
 Alpha virt. eigenvalues --    0.16944   0.25811   0.28244   0.31680   0.32654
 Alpha virt. eigenvalues --    0.35939   0.49327   0.57177   0.89744   0.97229
 Alpha virt. eigenvalues --    0.99807   1.06986   1.10753   1.12822   1.22384

 Mulliken charges:
               1
     1  C    0.154880
     2  C   -0.479375
     3  H    0.239222
     4  H    0.226293
     5  H    0.245829
     6  O   -0.412191
     7  O   -0.388143
     8  H    0.413485
 Sum of Mulliken charges =   0.00000

 Dipole moment (field-independent basis, Debye):
    X=              0.6362    Y=              1.3207    Z=             -0.7430  Tot=              1.6435
 Quadrupole moment (field-independent basis, Debye-Ang):
   XX=            -19.3509   YY=            -17.0825   ZZ=            -27.4629
   XY=             -3.2077   XZ=              0.2475   YZ=             -0.3554

 Normal termination of Gaussian 09 at Fri Apr 12 16:10:40 2019.
