 Gaussian 09, Revision D.01,
 Gaussian 09:  AS64L-G09RevD.01 24-Apr-2013

 --------------------------------------------------------------------
 #p hf 3-21g scf=tight NoSymmetry guess=read opt=(tight,modredundant)
 --------------------------------------------------------------------

 -----------------------------------
 Geometry optimization at the 2D-PES
 -----------------------------------
 Symbolic Z-matrix:
 Charge =  0 Multiplicity = 1

 SCF Done:  E(RHF) =  -226.381128559     A.U. after   13 cycles
 SCF Done:  E(RHF) =  -226.381142722     A.U. after   13 cycles
 SCF Done:  E(RHF) =  -226.381155598     A.U. after   10 cycles
 SCF Done:  E(RHF) =  -226.381155778     A.U. after   10 cycles
 SCF Done:  E(RHF) =  -226.381155803     A.U. after    8 cycles
 SCF Done:  E(RHF) =  -226.381155803     A.U. after    6 cycles
 Optimization completed.
    -- Stationary point found.

                          Input orientation:
 ---------------------------------------------------------------------
 Center     Atomic      Atomic             Coordinates (Angstroms)
 Number     Number       Type             X           Y           Z
 ---------------------------------------------------------------------
      1          6           0        0.759528    0.634136    0.015703
      2          6           0        1.386705   -0.514137   -0.010298
      3          1           0        1.248532    1.584044    0.112848
      4          1           0        2.453944   -0.555587    0.062448
      5          1           0        0.844960   -1.434619   -0.085970
      6          8           0       -0.642325    0.683730    0.040646
      7          8           0       -1.143171    1.769040   -0.822573
      8          1           0       -0.364537    2.076958   -1.321598
 ---------------------------------------------------------------------

 Alpha  occ. eigenvalues --  -20.53697 -20.52544 -11.25452 -11.18653  -1.47273
 Alpha  occ. eigenvalues --   -1.24189  -1.04439  -0.81807  -0.71931  -0.67227
 Alpha  occ. eigenvalues --   -0.62333  -0.59324  -0.55574  -0.53127  -0.46833
 Alpha  occ. eigenvalues --   -0.37853
 Alpha virt. eigenvalues --    0.14982   0.24383   0.26387   0.30458   0.32755
 Alpha virt. eigenvalues --    0.35216   0.49493   0.55977   0.88141   0.96045
 Alpha virt. eigenvalues --    0.98900   1.06110   1.09473   1.10998   1.23805

 Mulliken charges:
               1
     1  C    0.091295
     2  C   -0.470390
     3  H    0.237969
     4  H    0.232927
     5  H    0.255233
     6  O   -0.375432
     7  O   -0.371114
     8  H    0.399512
 Sum of Mulliken charges =   0.00000

 Dipole moment (field-independent basis, Debye):
    X=              3.5118    Y=              0.4661    Z=             -1.0716  Tot=              3.7011
 Quadrupole moment (field-independent basis, Debye-Ang):
   XX=            -25.2389   YY=            -19.5636   ZZ=            -23.4186
   XY=              3.6314   XZ=             -0.5991   YZ=             -2.6272

 Normal termination of Gaussian 09 at Fri Apr 12 15:25:08 2019.
