 Gaussian 09, Revision D.01,
 Gaussian 09:  AS64L-G09RevD.01 24-Apr-2013

 --------------------------------------------------------------------
 #p hf 3-21g scf=tight NoSymmetry guess=read opt=(tight,modredundant)
 --------------------------------------------------------------------

 -----------------------------------
 Geometry optimization at the 2D-PES
 -----------------------------------
 Symbolic Z-matrix:
 Charge =  0 Multiplicity = 1

 SCF Done:  E(RHF) =  -226.386994653     A.U. after   13 cycles
 SCF Done:  E(RHF) =  -226.387013981     A.U. after   12 cycles
 SCF Done:  E(RHF) =  -226.387027729     A.U. after   11 cycles
 SCF Done:  E(RHF) =  -226.387027866     A.U. after    9 cycles
 SCF Done:  E(RHF) =  -226.387027893     A.U. after    9 cycles
 SCF Done:  E(RHF) =  -226.387027895     A.U. after    8 cycles
 Optimization completed.
    -- Stationary point found.

                          Input orientation:
 ---------------------------------------------------------------------
 Center     Atomic      Atomic             Coordinates (Angstroms)
 Number     Number       Type             X           Y           Z
 ---------------------------------------------------------------------
      1          6           0        0.749527    0.630245    0.059354
      2          6           0        1.379409   -0.514326    0.003823
      3          1           0        1.240625    1.582880    0.100216
      4          1           0        2.448932   -0.551494   -0.026382
      5          1           0        0.836336   -1.436380   -0.028857
      6          8           0       -0.652864    0.687110   -0.017603
      7          8           0       -1.159928    1.510120    1.088007
      8          1           0       -0.739096    2.376403    0.932327
 ---------------------------------------------------------------------

 Alpha  occ. eigenvalues --  -20.53572 -20.52585 -11.24921 -11.18137  -1.47463
 Alpha  occ. eigenvalues --   -1.23841  -1.03923  -0.81196  -0.70319  -0.68702
 Alpha  occ. eigenvalues --   -0.63788  -0.57203  -0.56787  -0.50398  -0.47742
 Alpha  occ. eigenvalues --   -0.37959
 Alpha virt. eigenvalues --    0.16130   0.24360   0.25808   0.30893   0.33712
 Alpha virt. eigenvalues --    0.35244   0.49919   0.56309   0.88795   0.96290
 Alpha virt. eigenvalues --    0.98967   1.05880   1.09856   1.10901   1.24994

 Mulliken charges:
               1
     1  C    0.124109
     2  C   -0.468150
     3  H    0.220605
     4  H    0.229700
     5  H    0.253750
     6  O   -0.386053
     7  O   -0.370899
     8  H    0.396938
 Sum of Mulliken charges =   0.00000

 Dipole moment (field-independent basis, Debye):
    X=              2.7768    Y=              1.5517    Z=             -0.1257  Tot=              3.1834
 Quadrupole moment (field-independent basis, Debye-Ang):
   XX=            -24.5808   YY=            -14.9875   ZZ=            -26.4167
   XY=              0.9722   XZ=              1.0085   YZ=              1.4984

 Normal termination of Gaussian 09 at Fri Apr 12 16:08:41 2019.
