 Gaussian 09, Revision D.01,
 Gaussian 09:  AS64L-G09RevD.01 24-Apr-2013

 --------------------------------------------------------------------
 #p hf 3-21g scf=tight NoSymmetry guess=read opt=(tight,modredundant)
 --------------------------------------------------------------------

 -----------------------------------
 Geometry optimization at the 2D-PES
 -----------------------------------
 Symbolic Z-matrix:
 Charge =  0 Multiplicity = 1

 SCF Done:  E(RHF) =  -226.395339670     A.U. after   13 cycles
 SCF Done:  E(RHF) =  -226.395340242     A.U. after   10 cycles
 SCF Done:  E(RHF) =  -226.395340653     A.U. after    9 cycles
 SCF Done:  E(RHF) =  -226.395340660     A.U. after    7 cycles
 SCF Done:  E(RHF) =  -226.395340661     A.U. after    6 cycles
 Optimization completed.
    -- Stationary point found.

                          Input orientation:
 ---------------------------------------------------------------------
 Center     Atomic      Atomic             Coordinates (Angstroms)
 Number     Number       Type             X           Y           Z
 ---------------------------------------------------------------------
      1          6           0        0.725068    0.632673    0.052647
      2          6           0        1.367347   -0.506477    0.005681
      3          1           0        1.185567    1.594236    0.126542
      4          1           0        2.437573   -0.528876   -0.006012
      5          1           0        0.840502   -1.437427   -0.043451
      6          8           0       -0.674094    0.669535   -0.026499
      7          8           0       -1.108150    1.510533    1.104657
      8          1           0       -2.031708    1.215084    1.170600
 ---------------------------------------------------------------------

 Alpha  occ. eigenvalues --  -20.52906 -20.51917 -11.23968 -11.17142  -1.46744
 Alpha  occ. eigenvalues --   -1.23509  -1.02885  -0.79504  -0.70007  -0.67556
 Alpha  occ. eigenvalues --   -0.63268  -0.59514  -0.55727  -0.50302  -0.45778
 Alpha  occ. eigenvalues --   -0.37198
 Alpha virt. eigenvalues --    0.16977   0.25951   0.28418   0.31610   0.32702
 Alpha virt. eigenvalues --    0.36096   0.49655   0.57177   0.89726   0.97394
 Alpha virt. eigenvalues --    0.99577   1.07210   1.10581   1.12399   1.23435

 Mulliken charges:
               1
     1  C    0.162370
     2  C   -0.483042
     3  H    0.249489
     4  H    0.226925
     5  H    0.239644
     6  O   -0.419526
     7  O   -0.395121
     8  H    0.419261
 Sum of Mulliken charges =   0.00000

 Dipole moment (field-independent basis, Debye):
    X=             -0.0650    Y=             -0.5506    Z=              0.4110  Tot=              0.6902
 Quadrupole moment (field-independent basis, Debye-Ang):
   XX=            -16.5169   YY=            -23.7160   ZZ=            -25.3489
   XY=             -0.4376   XZ=             -2.7579   YZ=             -0.1237

 Normal termination of Gaussian 09 at Fri Apr 12 16:12:30 2019.
