 Gaussian 09, Revision D.01,
 Gaussian 09:  AS64L-G09RevD.01 24-Apr-2013

 --------------------------------------------------------------------
 #p hf 3-21g scf=tight NoSymmetry guess=read opt=(tight,modredundant)
 --------------------------------------------------------------------

 -----------------------------------
 Geometry optimization at the 2D-PES
 -----------------------------------
 Symbolic Z-matrix:
 Charge =  0 Multiplicity = 1

 SCF Done:  E(RHF) =  -226.393390429     A.U. after   13 cycles
 SCF Done:  E(RHF) =  -226.393394044     A.U. after   11 cycles
 SCF Done:  E(RHF) =  -226.393396171     A.U. after   10 cycles
 SCF Done:  E(RHF) =  -226.393396215     A.U. after    8 cycles
 SCF Done:  E(RHF) =  -226.393396219     A.U. after    6 cycles
 Optimization completed.
    -- Stationary point found.

                          Input orientation:
 ---------------------------------------------------------------------
 Center     Atomic      Atomic             Coordinates (Angstroms)
 Number     Number       Type             X           Y           Z
 ---------------------------------------------------------------------
      1          6           0        0.726563    0.627499    0.041179
      2          6           0        1.370835   -0.509580    0.000577
      3          1           0        1.193420    1.586067    0.128682
      4          1           0        2.441381   -0.534604    0.012774
      5          1           0        0.841373   -1.438440   -0.058090
      6          8           0       -0.679673    0.665492   -0.026522
      7          8           0       -1.146442    0.833204    1.363857
      8          1           0       -1.874598    1.460899    1.216745
 ---------------------------------------------------------------------

 Alpha  occ. eigenvalues --  -20.52345 -20.51572 -11.23599 -11.17602  -1.46150
 Alpha  occ. eigenvalues --   -1.22963  -1.03041  -0.79222  -0.69700  -0.67301
 Alpha  occ. eigenvalues --   -0.64717  -0.57319  -0.55112  -0.50562  -0.44491
 Alpha  occ. eigenvalues --   -0.38261
 Alpha virt. eigenvalues --    0.15742   0.27394   0.28956   0.31047   0.32218
 Alpha virt. eigenvalues --    0.36288   0.49304   0.56884   0.89053   0.97528
 Alpha virt. eigenvalues --    0.99046   1.07255   1.10546   1.12893   1.22769

 Mulliken charges:
               1
     1  C    0.139172
     2  C   -0.452405
     3  H    0.231377
     4  H    0.226344
     5  H    0.249563
     6  O   -0.414668
     7  O   -0.391121
     8  H    0.411739
 Sum of Mulliken charges =   0.00000

 Dipole moment (field-independent basis, Debye):
    X=              0.5168    Y=              1.0871    Z=             -0.0129  Tot=              1.2038
 Quadrupole moment (field-independent basis, Debye-Ang):
   XX=            -18.1163   YY=            -18.9570   ZZ=            -26.4731
   XY=             -2.9447   XZ=             -1.6296   YZ=              1.8152

 Normal termination of Gaussian 09 at Fri Apr 12 16:30:07 2019.
