 Gaussian 09, Revision D.01,
 Gaussian 09:  AS64L-G09RevD.01 24-Apr-2013

 --------------------------------------------------------------------
 #p hf 3-21g scf=tight NoSymmetry guess=read opt=(tight,modredundant)
 --------------------------------------------------------------------

 -----------------------------------
 Geometry optimization at the 2D-PES
 -----------------------------------
 Symbolic Z-matrix:
 Charge =  0 Multiplicity = 1

 SCF Done:  E(RHF) =  -226.382520562     A.U. after   13 cycles
 SCF Done:  E(RHF) =  -226.382545253     A.U. after   13 cycles
 SCF Done:  E(RHF) =  -226.382581432     A.U. after   12 cycles
 SCF Done:  E(RHF) =  -226.382581717     A.U. after    9 cycles
 SCF Done:  E(RHF) =  -226.382581782     A.U. after    9 cycles
 SCF Done:  E(RHF) =  -226.382581785     A.U. after    7 cycles
 Optimization completed.
    -- Stationary point found.

                          Input orientation:
 ---------------------------------------------------------------------
 Center     Atomic      Atomic             Coordinates (Angstroms)
 Number     Number       Type             X           Y           Z
 ---------------------------------------------------------------------
      1          6           0        0.757018    0.632181    0.033685
      2          6           0        1.380797   -0.517381   -0.007843
      3          1           0        1.256214    1.576679    0.113705
      4          1           0        2.450179   -0.553684    0.007168
      5          1           0        0.841450   -1.440947   -0.057266
      6          8           0       -0.644759    0.691714    0.023382
      7          8           0       -1.115351    2.076633    0.075967
      8          1           0       -0.502001    2.561598   -0.506338
 ---------------------------------------------------------------------

 Alpha  occ. eigenvalues --  -20.54190 -20.53415 -11.25655 -11.17504  -1.48273
 Alpha  occ. eigenvalues --   -1.24552  -1.03993  -0.81726  -0.72033  -0.66779
 Alpha  occ. eigenvalues --   -0.64913  -0.58084  -0.54964  -0.53314  -0.48983
 Alpha  occ. eigenvalues --   -0.36603
 Alpha virt. eigenvalues --    0.17743   0.21903   0.24717   0.31182   0.33823
 Alpha virt. eigenvalues --    0.35572   0.50605   0.56517   0.88887   0.96165
 Alpha virt. eigenvalues --    0.99115   1.05965   1.09984   1.10986   1.23745

 Mulliken charges:
               1
     1  C    0.126923
     2  C   -0.495779
     3  H    0.235671
     4  H    0.230373
     5  H    0.248936
     6  O   -0.384511
     7  O   -0.361736
     8  H    0.400123
 Sum of Mulliken charges =   0.00000

 Dipole moment (field-independent basis, Debye):
    X=              3.0039    Y=              1.1644    Z=             -1.1380  Tot=              3.4168
 Quadrupole moment (field-independent basis, Debye-Ang):
   XX=            -25.0543   YY=            -17.0285   ZZ=            -25.2253
   XY=              3.2685   XZ=              0.8154   YZ=             -2.9079

 Normal termination of Gaussian 09 at Fri Apr 12 15:41:51 2019.
