 Gaussian 09, Revision D.01,
 Gaussian 09:  AS64L-G09RevD.01 24-Apr-2013

 --------------------------------------------------------------------
 #p hf 3-21g scf=tight NoSymmetry guess=read opt=(tight,modredundant)
 --------------------------------------------------------------------

 -----------------------------------
 Geometry optimization at the 2D-PES
 -----------------------------------
 Symbolic Z-matrix:
 Charge =  0 Multiplicity = 1

 SCF Done:  E(RHF) =  -226.387362844     A.U. after   12 cycles
 SCF Done:  E(RHF) =  -226.387388154     A.U. after   12 cycles
 SCF Done:  E(RHF) =  -226.387406645     A.U. after   12 cycles
 SCF Done:  E(RHF) =  -226.387406873     A.U. after   10 cycles
 SCF Done:  E(RHF) =  -226.387406931     A.U. after    9 cycles
 SCF Done:  E(RHF) =  -226.387406933     A.U. after    7 cycles
 Optimization completed.
    -- Stationary point found.

                          Input orientation:
 ---------------------------------------------------------------------
 Center     Atomic      Atomic             Coordinates (Angstroms)
 Number     Number       Type             X           Y           Z
 ---------------------------------------------------------------------
      1          6           0        0.745168    0.637621    0.017619
      2          6           0        1.378591   -0.507258   -0.015324
      3          1           0        1.216216    1.595133    0.102122
      4          1           0        2.447191   -0.539075    0.038522
      5          1           0        0.845592   -1.433901   -0.079745
      6          8           0       -0.659040    0.676948    0.045331
      7          8           0       -1.109731    1.904743   -0.618342
      8          1           0       -0.622397    1.899428   -1.463366
 ---------------------------------------------------------------------

 Alpha  occ. eigenvalues --  -20.53907 -20.52921 -11.25085 -11.18094  -1.47927
 Alpha  occ. eigenvalues --   -1.24102  -1.04050  -0.81096  -0.72453  -0.66143
 Alpha  occ. eigenvalues --   -0.64274  -0.59055  -0.55186  -0.52404  -0.47633
 Alpha  occ. eigenvalues --   -0.37592
 Alpha virt. eigenvalues --    0.15955   0.24028   0.27089   0.30944   0.32572
 Alpha virt. eigenvalues --    0.35386   0.49103   0.56462   0.88736   0.96456
 Alpha virt. eigenvalues --    0.98760   1.06283   1.09672   1.10399   1.24846

 Mulliken charges:
               1
     1  C    0.104120
     2  C   -0.484961
     3  H    0.251284
     4  H    0.231949
     5  H    0.249313
     6  O   -0.381180
     7  O   -0.371760
     8  H    0.401236
 Sum of Mulliken charges =   0.00000

 Dipole moment (field-independent basis, Debye):
    X=              2.8533    Y=              0.0399    Z=             -1.7844  Tot=              3.3655
 Quadrupole moment (field-independent basis, Debye-Ang):
   XX=            -24.7575   YY=            -21.9572   ZZ=            -21.8658
   XY=              3.0368   XZ=              0.8034   YZ=             -3.2642

 Normal termination of Gaussian 09 at Fri Apr 12 15:27:07 2019.
