 Gaussian 09, Revision D.01,
 Gaussian 09:  AS64L-G09RevD.01 24-Apr-2013

 --------------------------------------------------------------------
 #p hf 3-21g scf=tight NoSymmetry guess=read opt=(tight,modredundant)
 --------------------------------------------------------------------

 -----------------------------------
 Geometry optimization at the 2D-PES
 -----------------------------------
 Symbolic Z-matrix:
 Charge =  0 Multiplicity = 1

 SCF Done:  E(RHF) =  -226.381212074     A.U. after   13 cycles
 SCF Done:  E(RHF) =  -226.381217465     A.U. after   10 cycles
 SCF Done:  E(RHF) =  -226.381218767     A.U. after    9 cycles
 SCF Done:  E(RHF) =  -226.381218790     A.U. after    7 cycles
 SCF Done:  E(RHF) =  -226.381218793     A.U. after    6 cycles
 Optimization completed.
    -- Stationary point found.

                          Input orientation:
 ---------------------------------------------------------------------
 Center     Atomic      Atomic             Coordinates (Angstroms)
 Number     Number       Type             X           Y           Z
 ---------------------------------------------------------------------
      1          6           0        0.739498    0.619138    0.030008
      2          6           0        1.402643   -0.512009   -0.000877
      3          1           0        1.201616    1.582861    0.081760
      4          1           0        2.473144   -0.517847    0.018367
      5          1           0        0.895151   -1.456534   -0.023207
      6          8           0       -0.668568    0.671102    0.018636
      7          8           0       -1.202811    0.261293   -1.298359
      8          1           0       -0.424509   -0.095726   -1.766136
 ---------------------------------------------------------------------

 Alpha  occ. eigenvalues --  -20.52863 -20.52077 -11.25557 -11.19660  -1.46538
 Alpha  occ. eigenvalues --   -1.23501  -1.05336  -0.81171  -0.72278  -0.67590
 Alpha  occ. eigenvalues --   -0.60664  -0.59909  -0.56255  -0.53031  -0.44912
 Alpha  occ. eigenvalues --   -0.39476
 Alpha virt. eigenvalues --    0.13743   0.25368   0.27651   0.29335   0.30280
 Alpha virt. eigenvalues --    0.36491   0.49756   0.54835   0.87319   0.96135
 Alpha virt. eigenvalues --    0.98774   1.04339   1.08039   1.11016   1.23072

 Mulliken charges:
               1
     1  C    0.086176
     2  C   -0.474480
     3  H    0.252596
     4  H    0.238737
     5  H    0.251841
     6  O   -0.383287
     7  O   -0.370404
     8  H    0.398820
 Sum of Mulliken charges =   0.00000

 Dipole moment (field-independent basis, Debye):
    X=              3.6440    Y=             -0.9535    Z=             -1.0357  Tot=              3.9065
 Quadrupole moment (field-independent basis, Debye-Ang):
   XX=            -25.3586   YY=            -22.2162   ZZ=            -22.5625
   XY=              1.8786   XZ=             -1.4225   YZ=              1.1398

 Normal termination of Gaussian 09 at Fri Apr 12 14:59:48 2019.
