 Gaussian 09, Revision D.01,
 Gaussian 09:  AS64L-G09RevD.01 24-Apr-2013

 --------------------------------------------------------------------
 #p hf 3-21g scf=tight NoSymmetry guess=read opt=(tight,modredundant)
 --------------------------------------------------------------------

 -----------------------------------
 Geometry optimization at the 2D-PES
 -----------------------------------
 Symbolic Z-matrix:
 Charge =  0 Multiplicity = 1

 SCF Done:  E(RHF) =  -226.394969603     A.U. after   13 cycles
 SCF Done:  E(RHF) =  -226.394977330     A.U. after   12 cycles
 SCF Done:  E(RHF) =  -226.394984914     A.U. after   11 cycles
 SCF Done:  E(RHF) =  -226.394984982     A.U. after    8 cycles
 SCF Done:  E(RHF) =  -226.394984986     A.U. after    8 cycles
 Optimization completed.
    -- Stationary point found.

                          Input orientation:
 ---------------------------------------------------------------------
 Center     Atomic      Atomic             Coordinates (Angstroms)
 Number     Number       Type             X           Y           Z
 ---------------------------------------------------------------------
      1          6           0        0.734871    0.587175    0.063851
      2          6           0        1.406950   -0.530933   -0.034153
      3          1           0        1.183622    1.558209    0.092309
      4          1           0        2.476940   -0.514402   -0.054171
      5          1           0        0.916395   -1.480832   -0.046346
      6          8           0       -0.660609    0.708314    0.040685
      7          8           0       -1.245738   -0.395660    0.809192
      8          1           0       -2.004659   -0.605620    0.239000
 ---------------------------------------------------------------------

 Alpha  occ. eigenvalues --  -20.53208 -20.52506 -11.24031 -11.16555  -1.47241
 Alpha  occ. eigenvalues --   -1.23650  -1.03040  -0.79020  -0.70452  -0.68197
 Alpha  occ. eigenvalues --   -0.64662  -0.57532  -0.53790  -0.52144  -0.47244
 Alpha  occ. eigenvalues --   -0.36266
 Alpha virt. eigenvalues --    0.17313   0.25140   0.29172   0.30127   0.32953
 Alpha virt. eigenvalues --    0.37296   0.50065   0.57897   0.89040   0.97214
 Alpha virt. eigenvalues --    1.00855   1.07128   1.10361   1.12938   1.22254

 Mulliken charges:
               1
     1  C    0.147864
     2  C   -0.484155
     3  H    0.253376
     4  H    0.223303
     5  H    0.241122
     6  O   -0.418504
     7  O   -0.380509
     8  H    0.417503
 Sum of Mulliken charges =   0.00000

 Dipole moment (field-independent basis, Debye):
    X=              0.1381    Y=             -0.7177    Z=             -0.9919  Tot=              1.2321
 Quadrupole moment (field-independent basis, Debye-Ang):
   XX=            -17.5635   YY=            -21.9003   ZZ=            -26.9722
   XY=              3.2615   XZ=              1.2347   YZ=              0.6396

 Normal termination of Gaussian 09 at Fri Apr 12 17:16:42 2019.
