 Gaussian 09, Revision D.01,
 Gaussian 09:  AS64L-G09RevD.01 24-Apr-2013

 --------------------------------------------------------------------
 #p hf 3-21g scf=tight NoSymmetry guess=read opt=(tight,modredundant)
 --------------------------------------------------------------------

 -----------------------------------
 Geometry optimization at the 2D-PES
 -----------------------------------
 Symbolic Z-matrix:
 Charge =  0 Multiplicity = 1

 SCF Done:  E(RHF) =  -226.384492248     A.U. after   13 cycles
 SCF Done:  E(RHF) =  -226.384500942     A.U. after   12 cycles
 SCF Done:  E(RHF) =  -226.384510021     A.U. after   11 cycles
 SCF Done:  E(RHF) =  -226.384510103     A.U. after    9 cycles
 SCF Done:  E(RHF) =  -226.384510115     A.U. after    8 cycles
 SCF Done:  E(RHF) =  -226.384510116     A.U. after    6 cycles
 Optimization completed.
    -- Stationary point found.

                          Input orientation:
 ---------------------------------------------------------------------
 Center     Atomic      Atomic             Coordinates (Angstroms)
 Number     Number       Type             X           Y           Z
 ---------------------------------------------------------------------
      1          6           0        0.749648    0.605736    0.046252
      2          6           0        1.406998   -0.524708   -0.023289
      3          1           0        1.211073    1.571343    0.073097
      4          1           0        2.477749   -0.534086   -0.025527
      5          1           0        0.890986   -1.462479   -0.067968
      6          8           0       -0.659067    0.689578    0.020365
      7          8           0       -1.237207   -0.056472    1.150896
      8          1           0       -0.633979    0.149877    1.889331
 ---------------------------------------------------------------------

 Alpha  occ. eigenvalues --  -20.52966 -20.52227 -11.24850 -11.18831  -1.46802
 Alpha  occ. eigenvalues --   -1.23303  -1.04625  -0.80959  -0.70563  -0.68638
 Alpha  occ. eigenvalues --   -0.61093  -0.58427  -0.57799  -0.51216  -0.45662
 Alpha  occ. eigenvalues --   -0.38728
 Alpha virt. eigenvalues --    0.14356   0.26277   0.27884   0.28861   0.31209
 Alpha virt. eigenvalues --    0.36717   0.49711   0.55749   0.87354   0.96875
 Alpha virt. eigenvalues --    0.97875   1.05475   1.08901   1.10652   1.24302

 Mulliken charges:
               1
     1  C    0.074652
     2  C   -0.459766
     3  H    0.249580
     4  H    0.232430
     5  H    0.259001
     6  O   -0.382833
     7  O   -0.371642
     8  H    0.398577
 Sum of Mulliken charges =   0.00000

 Dipole moment (field-independent basis, Debye):
    X=              3.2414    Y=              0.0343    Z=              1.6406  Tot=              3.6331
 Quadrupole moment (field-independent basis, Debye-Ang):
   XX=            -25.1503   YY=            -22.2058   ZZ=            -20.7994
   XY=              0.8179   XZ=              0.3944   YZ=              1.0167

 Normal termination of Gaussian 09 at Fri Apr 12 17:03:58 2019.
