 Gaussian 09, Revision D.01,
 Gaussian 09:  AS64L-G09RevD.01 24-Apr-2013

 --------------------------------------------------------------------
 #p hf 3-21g scf=tight NoSymmetry guess=read opt=(tight,modredundant)
 --------------------------------------------------------------------

 -----------------------------------
 Geometry optimization at the 2D-PES
 -----------------------------------
 Symbolic Z-matrix:
 Charge =  0 Multiplicity = 1

 SCF Done:  E(RHF) =  -226.398204502     A.U. after   13 cycles
 SCF Done:  E(RHF) =  -226.398205018     A.U. after   11 cycles
 SCF Done:  E(RHF) =  -226.398205304     A.U. after   10 cycles
 SCF Done:  E(RHF) =  -226.398205313     A.U. after    7 cycles
 SCF Done:  E(RHF) =  -226.398205314     A.U. after    6 cycles
 Optimization completed.
    -- Stationary point found.

                          Input orientation:
 ---------------------------------------------------------------------
 Center     Atomic      Atomic             Coordinates (Angstroms)
 Number     Number       Type             X           Y           Z
 ---------------------------------------------------------------------
      1          6           0        0.731182    0.571927    0.040404
      2          6           0        1.417390   -0.538406   -0.049216
      3          1           0        1.165821    1.548625    0.097255
      4          1           0        2.486971   -0.500322   -0.055904
      5          1           0        0.941334   -1.492524   -0.101904
      6          8           0       -0.653830    0.712011    0.047167
      7          8           0       -1.267128   -0.610654    0.176469
      8          1           0       -2.190380   -0.365356   -0.000276
 ---------------------------------------------------------------------

 Alpha  occ. eigenvalues --  -20.53825 -20.52674 -11.24148 -11.15613  -1.47814
 Alpha  occ. eigenvalues --   -1.24084  -1.02647  -0.79034  -0.71892  -0.65127
 Alpha  occ. eigenvalues --   -0.64389  -0.61128  -0.53558  -0.50919  -0.48218
 Alpha  occ. eigenvalues --   -0.35393
 Alpha virt. eigenvalues --    0.20093   0.23134   0.28600   0.30588   0.34312
 Alpha virt. eigenvalues --    0.37457   0.50245   0.59234   0.89446   0.97556
 Alpha virt. eigenvalues --    1.00899   1.07695   1.10757   1.12805   1.24015

 Mulliken charges:
               1
     1  C    0.158703
     2  C   -0.507016
     3  H    0.257349
     4  H    0.217992
     5  H    0.254929
     6  O   -0.422839
     7  O   -0.383817
     8  H    0.424699
 Sum of Mulliken charges =   0.00000

 Dipole moment (field-independent basis, Debye):
    X=             -0.4205    Y=              0.2971    Z=             -0.3422  Tot=              0.6182
 Quadrupole moment (field-independent basis, Debye-Ang):
   XX=            -16.0132   YY=            -22.8781   ZZ=            -25.8913
   XY=              1.7745   XZ=              0.6167   YZ=              0.4742

 Normal termination of Gaussian 09 at Fri Apr 12 17:49:56 2019.
