 Gaussian 09, Revision D.01,
 Gaussian 09:  AS64L-G09RevD.01 24-Apr-2013

 --------------------------------------------------------------------
 #p hf 3-21g scf=tight NoSymmetry guess=read opt=(tight,modredundant)
 --------------------------------------------------------------------

 -----------------------------------
 Geometry optimization at the 2D-PES
 -----------------------------------
 Symbolic Z-matrix:
 Charge =  0 Multiplicity = 1

 SCF Done:  E(RHF) =  -226.397160617     A.U. after   12 cycles
 SCF Done:  E(RHF) =  -226.397161566     A.U. after   11 cycles
 SCF Done:  E(RHF) =  -226.397162727     A.U. after   10 cycles
 SCF Done:  E(RHF) =  -226.397162747     A.U. after    8 cycles
 SCF Done:  E(RHF) =  -226.397162749     A.U. after    6 cycles
 Optimization completed.
    -- Stationary point found.

                          Input orientation:
 ---------------------------------------------------------------------
 Center     Atomic      Atomic             Coordinates (Angstroms)
 Number     Number       Type             X           Y           Z
 ---------------------------------------------------------------------
      1          6           0        0.732525    0.575433    0.054259
      2          6           0        1.414815   -0.536576   -0.042676
      3          1           0        1.170550    1.551698    0.090020
      4          1           0        2.484523   -0.503369   -0.058743
      5          1           0        0.934753   -1.489979   -0.081455
      6          8           0       -0.654964    0.711653    0.050934
      7          8           0       -1.261686   -0.575503    0.398224
      8          1           0       -2.137440   -0.259114    0.675671
 ---------------------------------------------------------------------

 Alpha  occ. eigenvalues --  -20.53641 -20.52558 -11.24082 -11.15779  -1.47622
 Alpha  occ. eigenvalues --   -1.23936  -1.02680  -0.79057  -0.71757  -0.65034
 Alpha  occ. eigenvalues --   -0.63433  -0.62148  -0.53753  -0.50517  -0.47904
 Alpha  occ. eigenvalues --   -0.35593
 Alpha virt. eigenvalues --    0.19394   0.23647   0.28705   0.30574   0.34130
 Alpha virt. eigenvalues --    0.37403   0.50263   0.58990   0.89360   0.97537
 Alpha virt. eigenvalues --    1.00670   1.07607   1.10814   1.12816   1.23960

 Mulliken charges:
               1
     1  C    0.155081
     2  C   -0.501295
     3  H    0.255408
     4  H    0.218712
     5  H    0.255035
     6  O   -0.422204
     7  O   -0.384625
     8  H    0.423888
 Sum of Mulliken charges =   0.00000

 Dipole moment (field-independent basis, Debye):
    X=             -0.2659    Y=              0.4235    Z=              0.7127  Tot=              0.8706
 Quadrupole moment (field-independent basis, Debye-Ang):
   XX=            -16.4810   YY=            -22.9349   ZZ=            -25.1077
   XY=              1.2597   XZ=             -2.1839   YZ=              0.3315

 Normal termination of Gaussian 09 at Fri Apr 12 17:37:46 2019.
