 Gaussian 09, Revision D.01,
 Gaussian 09:  AS64L-G09RevD.01 24-Apr-2013

 --------------------------------------------------------------------
 #p hf 3-21g scf=tight NoSymmetry guess=read opt=(tight,modredundant)
 --------------------------------------------------------------------

 -----------------------------------
 Geometry optimization at the 2D-PES
 -----------------------------------
 Symbolic Z-matrix:
 Charge =  0 Multiplicity = 1

 SCF Done:  E(RHF) =  -226.394535951     A.U. after   13 cycles
 SCF Done:  E(RHF) =  -226.394543931     A.U. after   11 cycles
 SCF Done:  E(RHF) =  -226.394550714     A.U. after   10 cycles
 SCF Done:  E(RHF) =  -226.394550766     A.U. after    8 cycles
 SCF Done:  E(RHF) =  -226.394550767     A.U. after    6 cycles
 Optimization completed.
    -- Stationary point found.

                          Input orientation:
 ---------------------------------------------------------------------
 Center     Atomic      Atomic             Coordinates (Angstroms)
 Number     Number       Type             X           Y           Z
 ---------------------------------------------------------------------
      1          6           0        0.735918    0.637020    0.050990
      2          6           0        1.370937   -0.505981   -0.004784
      3          1           0        1.201796    1.596340    0.112623
      4          1           0        2.440759   -0.529880   -0.020493
      5          1           0        0.842216   -1.436368   -0.041097
      6          8           0       -0.665796    0.681178    0.001994
      7          8           0       -1.083869    1.968947    0.554438
      8          1           0       -1.408092    2.412131   -0.248696
 ---------------------------------------------------------------------

 Alpha  occ. eigenvalues --  -20.53792 -20.53028 -11.24442 -11.16639  -1.48094
 Alpha  occ. eigenvalues --   -1.24075  -1.02945  -0.79963  -0.71017  -0.67907
 Alpha  occ. eigenvalues --   -0.65247  -0.56340  -0.54690  -0.52842  -0.48446
 Alpha  occ. eigenvalues --   -0.36227
 Alpha virt. eigenvalues --    0.18662   0.22979   0.27395   0.31937   0.33559
 Alpha virt. eigenvalues --    0.35756   0.49529   0.57490   0.90087   0.96916
 Alpha virt. eigenvalues --    1.00052   1.06373   1.10766   1.12180   1.22994

 Mulliken charges:
               1
     1  C    0.155893
     2  C   -0.503125
     3  H    0.250989
     4  H    0.226572
     5  H    0.242075
     6  O   -0.407289
     7  O   -0.378453
     8  H    0.413338
 Sum of Mulliken charges =   0.00000

 Dipole moment (field-independent basis, Debye):
    X=              1.0604    Y=              1.2725    Z=             -1.5461  Tot=              2.2659
 Quadrupole moment (field-independent basis, Debye-Ang):
   XX=            -21.4419   YY=            -17.4037   ZZ=            -26.1907
   XY=             -1.5796   XZ=              2.1080   YZ=             -3.4409

 Normal termination of Gaussian 09 at Fri Apr 12 15:51:17 2019.
