 Gaussian 09, Revision D.01,
 Gaussian 09:  AS64L-G09RevD.01 24-Apr-2013

 --------------------------------------------------------------------
 #p hf 3-21g scf=tight NoSymmetry guess=read opt=(tight,modredundant)
 --------------------------------------------------------------------

 -----------------------------------
 Geometry optimization at the 2D-PES
 -----------------------------------
 Symbolic Z-matrix:
 Charge =  0 Multiplicity = 1

 SCF Done:  E(RHF) =  -226.398283273     A.U. after   13 cycles
 SCF Done:  E(RHF) =  -226.398284089     A.U. after   11 cycles
 SCF Done:  E(RHF) =  -226.398285427     A.U. after   10 cycles
 SCF Done:  E(RHF) =  -226.398285441     A.U. after    7 cycles
 SCF Done:  E(RHF) =  -226.398285443     A.U. after    6 cycles
 Optimization completed.
    -- Stationary point found.

                          Input orientation:
 ---------------------------------------------------------------------
 Center     Atomic      Atomic             Coordinates (Angstroms)
 Number     Number       Type             X           Y           Z
 ---------------------------------------------------------------------
      1          6           0        0.731703    0.571564    0.039547
      2          6           0        1.418446   -0.538451   -0.049735
      3          1           0        1.165869    1.548342    0.098321
      4          1           0        2.488000   -0.499977   -0.055926
      5          1           0        0.942534   -1.492613   -0.101403
      6          8           0       -0.653821    0.711591    0.046590
      7          8           0       -1.268844   -0.609683    0.176514
      8          1           0       -2.155480   -0.398275   -0.159749
 ---------------------------------------------------------------------

 Alpha  occ. eigenvalues --  -20.53851 -20.52719 -11.24168 -11.15645  -1.47859
 Alpha  occ. eigenvalues --   -1.24093  -1.02686  -0.79061  -0.71786  -0.65725
 Alpha  occ. eigenvalues --   -0.64475  -0.60456  -0.53562  -0.51088  -0.48263
 Alpha  occ. eigenvalues --   -0.35443
 Alpha virt. eigenvalues --    0.20035   0.23143   0.28642   0.30525   0.34251
 Alpha virt. eigenvalues --    0.37452   0.50186   0.59198   0.89408   0.97461
 Alpha virt. eigenvalues --    1.01171   1.07659   1.10732   1.12893   1.23515

 Mulliken charges:
               1
     1  C    0.157738
     2  C   -0.507082
     3  H    0.257515
     4  H    0.218144
     5  H    0.254212
     6  O   -0.421717
     7  O   -0.382880
     8  H    0.424071
 Sum of Mulliken charges =   0.00000

 Dipole moment (field-independent basis, Debye):
    X=             -0.3414    Y=              0.2261    Z=             -0.6887  Tot=              0.8012
 Quadrupole moment (field-independent basis, Debye-Ang):
   XX=            -16.3865   YY=            -22.8253   ZZ=            -25.8155
   XY=              1.9128   XZ=              1.4328   YZ=              0.6191

 Normal termination of Gaussian 09 at Fri Apr 12 17:50:13 2019.
