 Gaussian 09, Revision D.01,
 Gaussian 09:  AS64L-G09RevD.01 24-Apr-2013

 --------------------------------------------------------------------
 #p hf 3-21g scf=tight NoSymmetry guess=read opt=(tight,modredundant)
 --------------------------------------------------------------------

 -----------------------------------
 Geometry optimization at the 2D-PES
 -----------------------------------
 Symbolic Z-matrix:
 Charge =  0 Multiplicity = 1

 SCF Done:  E(RHF) =  -226.382299278     A.U. after   13 cycles
 SCF Done:  E(RHF) =  -226.382305705     A.U. after   12 cycles
 SCF Done:  E(RHF) =  -226.382308445     A.U. after   10 cycles
 SCF Done:  E(RHF) =  -226.382308556     A.U. after    9 cycles
 SCF Done:  E(RHF) =  -226.382308560     A.U. after    6 cycles
 Optimization completed.
    -- Stationary point found.

                          Input orientation:
 ---------------------------------------------------------------------
 Center     Atomic      Atomic             Coordinates (Angstroms)
 Number     Number       Type             X           Y           Z
 ---------------------------------------------------------------------
      1          6           0        0.735613    0.617145    0.031943
      2          6           0        1.400031   -0.512988   -0.003319
      3          1           0        1.198626    1.580510    0.075464
      4          1           0        2.470438   -0.516744    0.011770
      5          1           0        0.899089   -1.461830   -0.014683
      6          8           0       -0.673061    0.669287    0.019633
      7          8           0       -1.198828    0.265134   -1.299218
      8          1           0       -0.532224   -0.365713   -1.628393
 ---------------------------------------------------------------------

 Alpha  occ. eigenvalues --  -20.52967 -20.52219 -11.25599 -11.19581  -1.46760
 Alpha  occ. eigenvalues --   -1.23537  -1.05337  -0.80995  -0.72686  -0.67176
 Alpha  occ. eigenvalues --   -0.62014  -0.59678  -0.56046  -0.52439  -0.45374
 Alpha  occ. eigenvalues --   -0.39455
 Alpha virt. eigenvalues --    0.13909   0.24435   0.27798   0.29581   0.31030
 Alpha virt. eigenvalues --    0.36413   0.49810   0.54989   0.87406   0.95801
 Alpha virt. eigenvalues --    0.99391   1.04722   1.08151   1.10949   1.23448

 Mulliken charges:
               1
     1  C    0.104747
     2  C   -0.485521
     3  H    0.254002
     4  H    0.240211
     5  H    0.242661
     6  O   -0.386507
     7  O   -0.369107
     8  H    0.399514
 Sum of Mulliken charges =   0.00000

 Dipole moment (field-independent basis, Debye):
    X=              3.3957    Y=             -1.4217    Z=             -0.7759  Tot=              3.7622
 Quadrupole moment (field-independent basis, Debye-Ang):
   XX=            -25.1601   YY=            -21.9051   ZZ=            -23.5853
   XY=              2.2725   XZ=             -1.1542   YZ=              2.0285

 Normal termination of Gaussian 09 at Fri Apr 12 15:00:14 2019.
