 Gaussian 09, Revision D.01,
 Gaussian 09:  AS64L-G09RevD.01 24-Apr-2013

 --------------------------------------------------------------------
 #p hf 3-21g scf=tight NoSymmetry guess=read opt=(tight,modredundant)
 --------------------------------------------------------------------

 -----------------------------------
 Geometry optimization at the 2D-PES
 -----------------------------------
 Symbolic Z-matrix:
 Charge =  0 Multiplicity = 1

 SCF Done:  E(RHF) =  -226.383394575     A.U. after   13 cycles
 SCF Done:  E(RHF) =  -226.383404322     A.U. after   12 cycles
 SCF Done:  E(RHF) =  -226.383413450     A.U. after   11 cycles
 SCF Done:  E(RHF) =  -226.383413571     A.U. after   10 cycles
 SCF Done:  E(RHF) =  -226.383413590     A.U. after    9 cycles
 SCF Done:  E(RHF) =  -226.383413591     A.U. after    6 cycles
 Optimization completed.
    -- Stationary point found.

                          Input orientation:
 ---------------------------------------------------------------------
 Center     Atomic      Atomic             Coordinates (Angstroms)
 Number     Number       Type             X           Y           Z
 ---------------------------------------------------------------------
      1          6           0        0.750427    0.605704    0.043711
      2          6           0        1.408721   -0.525056   -0.023955
      3          1           0        1.212037    1.571035    0.071196
      4          1           0        2.479415   -0.533653   -0.025113
      5          1           0        0.894269   -1.463689   -0.073789
      6          8           0       -0.657034    0.687779    0.020899
      7          8           0       -1.240495   -0.054126    1.153763
      8          1           0       -0.559186    0.015177    1.848859
 ---------------------------------------------------------------------

 Alpha  occ. eigenvalues --  -20.52991 -20.52220 -11.25090 -11.19042  -1.46772
 Alpha  occ. eigenvalues --   -1.23403  -1.04850  -0.81081  -0.71029  -0.68431
 Alpha  occ. eigenvalues --   -0.61007  -0.58530  -0.57607  -0.51864  -0.45535
 Alpha  occ. eigenvalues --   -0.38816
 Alpha virt. eigenvalues --    0.14232   0.26081   0.27751   0.28768   0.30970
 Alpha virt. eigenvalues --    0.36705   0.49759   0.55531   0.87302   0.96904
 Alpha virt. eigenvalues --    0.97812   1.05028   1.08604   1.10774   1.23944

 Mulliken charges:
               1
     1  C    0.074951
     2  C   -0.464434
     3  H    0.251641
     4  H    0.234044
     5  H    0.258059
     6  O   -0.381990
     7  O   -0.370945
     8  H    0.398674
 Sum of Mulliken charges =   0.00000

 Dipole moment (field-independent basis, Debye):
    X=              3.3998    Y=             -0.2144    Z=              1.5353  Tot=              3.7365
 Quadrupole moment (field-independent basis, Debye-Ang):
   XX=            -25.3136   YY=            -22.2360   ZZ=            -21.1460
   XY=              1.0203   XZ=              0.7461   YZ=              0.4523

 Normal termination of Gaussian 09 at Fri Apr 12 17:04:17 2019.
