 Gaussian 09, Revision D.01,
 Gaussian 09:  AS64L-G09RevD.01 24-Apr-2013

 --------------------------------------------------------------------
 #p hf 3-21g scf=tight NoSymmetry guess=read opt=(tight,modredundant)
 --------------------------------------------------------------------

 -----------------------------------
 Geometry optimization at the 2D-PES
 -----------------------------------
 Symbolic Z-matrix:
 Charge =  0 Multiplicity = 1

 SCF Done:  E(RHF) =  -226.383290563     A.U. after   13 cycles
 SCF Done:  E(RHF) =  -226.383314413     A.U. after   13 cycles
 SCF Done:  E(RHF) =  -226.383378877     A.U. after   12 cycles
 SCF Done:  E(RHF) =  -226.383379223     A.U. after   10 cycles
 SCF Done:  E(RHF) =  -226.383379235     A.U. after    8 cycles
 SCF Done:  E(RHF) =  -226.383379238     A.U. after    7 cycles
 Optimization completed.
    -- Stationary point found.

                          Input orientation:
 ---------------------------------------------------------------------
 Center     Atomic      Atomic             Coordinates (Angstroms)
 Number     Number       Type             X           Y           Z
 ---------------------------------------------------------------------
      1          6           0        0.749171    0.561415    0.065352
      2          6           0        1.464097   -0.532238   -0.039844
      3          1           0        1.184929    1.538215    0.091892
      4          1           0        2.531054   -0.460156   -0.068029
      5          1           0        1.059416   -1.523274   -0.078929
      6          8           0       -0.639646    0.696313    0.057118
      7          8           0       -1.358923   -0.457923    0.591948
      8          1           0       -0.874299   -1.229305    0.253135
 ---------------------------------------------------------------------

 Alpha  occ. eigenvalues --  -20.54453 -20.53294 -11.26160 -11.18408  -1.48386
 Alpha  occ. eigenvalues --   -1.24768  -1.05226  -0.81158  -0.73264  -0.67855
 Alpha  occ. eigenvalues --   -0.65118  -0.58443  -0.54754  -0.53257  -0.48810
 Alpha  occ. eigenvalues --   -0.37600
 Alpha virt. eigenvalues --    0.16811   0.21415   0.27083   0.27722   0.36029
 Alpha virt. eigenvalues --    0.36832   0.49679   0.59692   0.87979   0.95410
 Alpha virt. eigenvalues --    1.00306   1.05442   1.08197   1.10855   1.24721

 Mulliken charges:
               1
     1  C    0.146599
     2  C   -0.521671
     3  H    0.269938
     4  H    0.241751
     5  H    0.205409
     6  O   -0.392233
     7  O   -0.362216
     8  H    0.412423
 Sum of Mulliken charges =   0.00000

 Dipole moment (field-independent basis, Debye):
    X=              2.6562    Y=             -1.5428    Z=             -0.5443  Tot=              3.1196
 Quadrupole moment (field-independent basis, Debye-Ang):
   XX=            -25.1072   YY=            -19.5045   ZZ=            -26.3923
   XY=              2.6934   XZ=              1.1679   YZ=              0.1993

 Normal termination of Gaussian 09 at Fri Apr 12 17:31:42 2019.
