 Gaussian 09, Revision D.01,
 Gaussian 09:  AS64L-G09RevD.01 24-Apr-2013

 --------------------------------------------------------------------
 #p hf 3-21g scf=tight NoSymmetry guess=read opt=(tight,modredundant)
 --------------------------------------------------------------------

 -----------------------------------
 Geometry optimization at the 2D-PES
 -----------------------------------
 Symbolic Z-matrix:
 Charge =  0 Multiplicity = 1

 SCF Done:  E(RHF) =  -226.394078949     A.U. after   12 cycles
 SCF Done:  E(RHF) =  -226.394089932     A.U. after   11 cycles
 SCF Done:  E(RHF) =  -226.394096613     A.U. after   10 cycles
 SCF Done:  E(RHF) =  -226.394096685     A.U. after    9 cycles
 SCF Done:  E(RHF) =  -226.394096693     A.U. after    7 cycles
 Optimization completed.
    -- Stationary point found.

                          Input orientation:
 ---------------------------------------------------------------------
 Center     Atomic      Atomic             Coordinates (Angstroms)
 Number     Number       Type             X           Y           Z
 ---------------------------------------------------------------------
      1          6           0        0.735132    0.634290    0.054115
      2          6           0        1.371240   -0.507411    0.003577
      3          1           0        1.205691    1.592329    0.122491
      4          1           0        2.441203   -0.537275   -0.014853
      5          1           0        0.835437   -1.433491   -0.035824
      6          8           0       -0.667580    0.674875   -0.020997
      7          8           0       -1.125669    1.507404    1.098325
      8          1           0       -1.443295    2.293757    0.621189
 ---------------------------------------------------------------------

 Alpha  occ. eigenvalues --  -20.53252 -20.52347 -11.24172 -11.17322  -1.47300
 Alpha  occ. eigenvalues --   -1.23602  -1.03136  -0.79856  -0.69603  -0.68825
 Alpha  occ. eigenvalues --   -0.65052  -0.56597  -0.55098  -0.50876  -0.47435
 Alpha  occ. eigenvalues --   -0.37304
 Alpha virt. eigenvalues --    0.16912   0.25371   0.27661   0.31553   0.32863
 Alpha virt. eigenvalues --    0.35717   0.49208   0.56990   0.89451   0.97081
 Alpha virt. eigenvalues --    0.99327   1.06889   1.10511   1.12233   1.23192

 Mulliken charges:
               1
     1  C    0.149277
     2  C   -0.477573
     3  H    0.233340
     4  H    0.226772
     5  H    0.247832
     6  O   -0.405356
     7  O   -0.383259
     8  H    0.408967
 Sum of Mulliken charges =   0.00000

 Dipole moment (field-independent basis, Debye):
    X=              1.2338    Y=              1.6353    Z=             -0.7596  Tot=              2.1848
 Quadrupole moment (field-independent basis, Debye-Ang):
   XX=            -21.3111   YY=            -15.4261   ZZ=            -27.4723
   XY=             -2.4806   XZ=              0.6384   YZ=             -0.1880

 Normal termination of Gaussian 09 at Fri Apr 12 16:10:11 2019.
