 Gaussian 09, Revision D.01,
 Gaussian 09:  AS64L-G09RevD.01 24-Apr-2013

 --------------------------------------------------------------------
 #p hf 3-21g scf=tight NoSymmetry guess=read opt=(tight,modredundant)
 --------------------------------------------------------------------

 -----------------------------------
 Geometry optimization at the 2D-PES
 -----------------------------------
 Symbolic Z-matrix:
 Charge =  0 Multiplicity = 1

 SCF Done:  E(RHF) =  -226.386897601     A.U. after   13 cycles
 SCF Done:  E(RHF) =  -226.386918582     A.U. after   12 cycles
 SCF Done:  E(RHF) =  -226.386935365     A.U. after   12 cycles
 SCF Done:  E(RHF) =  -226.386935496     A.U. after    9 cycles
 SCF Done:  E(RHF) =  -226.386935520     A.U. after    8 cycles
 SCF Done:  E(RHF) =  -226.386935521     A.U. after    7 cycles
 Optimization completed.
    -- Stationary point found.

                          Input orientation:
 ---------------------------------------------------------------------
 Center     Atomic      Atomic             Coordinates (Angstroms)
 Number     Number       Type             X           Y           Z
 ---------------------------------------------------------------------
      1          6           0        0.751376    0.632167    0.060147
      2          6           0        1.379388   -0.513525    0.002190
      3          1           0        1.244926    1.583308    0.096015
      4          1           0        2.448587   -0.550327   -0.033565
      5          1           0        0.836760   -1.436031   -0.024120
      6          8           0       -0.649822    0.689782   -0.014388
      7          8           0       -1.146464    1.692978    0.933048
      8          1           0       -0.721213    2.516276    0.628191
 ---------------------------------------------------------------------

 Alpha  occ. eigenvalues --  -20.53797 -20.52820 -11.25089 -11.17885  -1.47762
 Alpha  occ. eigenvalues --   -1.24047  -1.03868  -0.81262  -0.70636  -0.68479
 Alpha  occ. eigenvalues --   -0.64260  -0.57127  -0.56384  -0.51005  -0.48281
 Alpha  occ. eigenvalues --   -0.37518
 Alpha virt. eigenvalues --    0.16789   0.23764   0.25235   0.31061   0.33999
 Alpha virt. eigenvalues --    0.35268   0.50121   0.56455   0.88980   0.96268
 Alpha virt. eigenvalues --    0.99019   1.05883   1.09944   1.10979   1.24711

 Mulliken charges:
               1
     1  C    0.132240
     2  C   -0.477605
     3  H    0.221834
     4  H    0.229557
     5  H    0.252018
     6  O   -0.387158
     7  O   -0.368786
     8  H    0.397901
 Sum of Mulliken charges =   0.00000

 Dipole moment (field-independent basis, Debye):
    X=              2.7295    Y=              1.5756    Z=             -0.4393  Tot=              3.1821
 Quadrupole moment (field-independent basis, Debye-Ang):
   XX=            -24.6119   YY=            -14.7056   ZZ=            -26.7604
   XY=              1.2855   XZ=              1.0904   YZ=              0.2659

 Normal termination of Gaussian 09 at Fri Apr 12 16:04:43 2019.
