 Gaussian 09, Revision D.01,
 Gaussian 09:  AS64L-G09RevD.01 24-Apr-2013

 --------------------------------------------------------------------
 #p hf 3-21g scf=tight NoSymmetry guess=read opt=(tight,modredundant)
 --------------------------------------------------------------------

 -----------------------------------
 Geometry optimization at the 2D-PES
 -----------------------------------
 Symbolic Z-matrix:
 Charge =  0 Multiplicity = 1

 SCF Done:  E(RHF) =  -226.396020340     A.U. after   13 cycles
 SCF Done:  E(RHF) =  -226.396020501     A.U. after   10 cycles
 SCF Done:  E(RHF) =  -226.396020629     A.U. after    9 cycles
 SCF Done:  E(RHF) =  -226.396020632     A.U. after    6 cycles
 Optimization completed.
    -- Stationary point found.

                          Input orientation:
 ---------------------------------------------------------------------
 Center     Atomic      Atomic             Coordinates (Angstroms)
 Number     Number       Type             X           Y           Z
 ---------------------------------------------------------------------
      1          6           0        0.724238    0.633940    0.055454
      2          6           0        1.367242   -0.505161    0.002552
      3          1           0        1.182087    1.597333    0.115685
      4          1           0        2.437230   -0.522633   -0.012165
      5          1           0        0.844779   -1.438799   -0.041576
      6          8           0       -0.671860    0.673045   -0.018649
      7          8           0       -1.078568    1.851614    0.761595
      8          1           0       -2.037297    1.696417    0.788071
 ---------------------------------------------------------------------

 Alpha  occ. eigenvalues --  -20.53344 -20.52371 -11.24149 -11.16559  -1.47326
 Alpha  occ. eigenvalues --   -1.23899  -1.02660  -0.79705  -0.70258  -0.67395
 Alpha  occ. eigenvalues --   -0.63543  -0.59732  -0.55519  -0.50573  -0.47320
 Alpha  occ. eigenvalues --   -0.36128
 Alpha virt. eigenvalues --    0.18220   0.24365   0.27964   0.32015   0.33522
 Alpha virt. eigenvalues --    0.36098   0.49994   0.57575   0.90172   0.97413
 Alpha virt. eigenvalues --    1.00049   1.07150   1.10846   1.12259   1.23498

 Mulliken charges:
               1
     1  C    0.171267
     2  C   -0.501496
     3  H    0.258272
     4  H    0.226136
     5  H    0.237586
     6  O   -0.421220
     7  O   -0.392798
     8  H    0.422253
 Sum of Mulliken charges =   0.00000

 Dipole moment (field-independent basis, Debye):
    X=             -0.2730    Y=             -0.0178    Z=              0.2812  Tot=              0.3923
 Quadrupole moment (field-independent basis, Debye-Ang):
   XX=            -16.3721   YY=            -22.9483   ZZ=            -25.6563
   XY=             -1.9081   XZ=             -1.9159   YZ=              0.2512

 Normal termination of Gaussian 09 at Fri Apr 12 16:00:02 2019.
