 Gaussian 09, Revision D.01,
 Gaussian 09:  AS64L-G09RevD.01 24-Apr-2013

 --------------------------------------------------------------------
 #p hf 3-21g scf=tight NoSymmetry guess=read opt=(tight,modredundant)
 --------------------------------------------------------------------

 -----------------------------------
 Geometry optimization at the 2D-PES
 -----------------------------------
 Symbolic Z-matrix:
 Charge =  0 Multiplicity = 1

 SCF Done:  E(RHF) =  -226.393552097     A.U. after   13 cycles
 SCF Done:  E(RHF) =  -226.393561517     A.U. after   11 cycles
 SCF Done:  E(RHF) =  -226.393566295     A.U. after   10 cycles
 SCF Done:  E(RHF) =  -226.393566367     A.U. after    9 cycles
 SCF Done:  E(RHF) =  -226.393566375     A.U. after    6 cycles
 Optimization completed.
    -- Stationary point found.

                          Input orientation:
 ---------------------------------------------------------------------
 Center     Atomic      Atomic             Coordinates (Angstroms)
 Number     Number       Type             X           Y           Z
 ---------------------------------------------------------------------
      1          6           0        0.733321    0.632540    0.049680
      2          6           0        1.372486   -0.507315    0.003013
      3          1           0        1.203308    1.591029    0.121975
      4          1           0        2.442722   -0.536126   -0.008545
      5          1           0        0.837702   -1.433786   -0.041169
      6          8           0       -0.671344    0.670426   -0.022610
      7          8           0       -1.136989    1.298259    1.222524
      8          1           0       -1.462526    2.151306    0.885812
 ---------------------------------------------------------------------

 Alpha  occ. eigenvalues --  -20.53014 -20.52132 -11.24044 -11.17532  -1.46995
 Alpha  occ. eigenvalues --   -1.23396  -1.03196  -0.79797  -0.69486  -0.68637
 Alpha  occ. eigenvalues --   -0.64879  -0.56860  -0.55366  -0.50049  -0.46965
 Alpha  occ. eigenvalues --   -0.37733
 Alpha virt. eigenvalues --    0.16407   0.25966   0.27895   0.31381   0.32689
 Alpha virt. eigenvalues --    0.35762   0.49141   0.56838   0.89164   0.97169
 Alpha virt. eigenvalues --    0.99014   1.06981   1.10401   1.12283   1.23337

 Mulliken charges:
               1
     1  C    0.143177
     2  C   -0.467659
     3  H    0.229543
     4  H    0.226819
     5  H    0.249543
     6  O   -0.404751
     7  O   -0.384419
     8  H    0.407747
 Sum of Mulliken charges =   0.00000

 Dipole moment (field-independent basis, Debye):
    X=              1.2751    Y=              1.6675    Z=             -0.4519  Tot=              2.1472
 Quadrupole moment (field-independent basis, Debye-Ang):
   XX=            -21.2137   YY=            -15.5959   ZZ=            -27.2347
   XY=             -2.6475   XZ=              0.1039   YZ=              1.0241

 Normal termination of Gaussian 09 at Fri Apr 12 16:16:46 2019.
