 Gaussian 09, Revision D.01,
 Gaussian 09:  AS64L-G09RevD.01 24-Apr-2013

 --------------------------------------------------------------------
 #p hf 3-21g scf=tight NoSymmetry guess=read opt=(tight,modredundant)
 --------------------------------------------------------------------

 -----------------------------------
 Geometry optimization at the 2D-PES
 -----------------------------------
 Symbolic Z-matrix:
 Charge =  0 Multiplicity = 1

 SCF Done:  E(RHF) =  -226.386523750     A.U. after   13 cycles
 SCF Done:  E(RHF) =  -226.386543534     A.U. after   13 cycles
 SCF Done:  E(RHF) =  -226.386564561     A.U. after   12 cycles
 SCF Done:  E(RHF) =  -226.386564702     A.U. after    9 cycles
 SCF Done:  E(RHF) =  -226.386564731     A.U. after    9 cycles
 SCF Done:  E(RHF) =  -226.386564731     A.U. after    5 cycles
 Optimization completed.
    -- Stationary point found.

                          Input orientation:
 ---------------------------------------------------------------------
 Center     Atomic      Atomic             Coordinates (Angstroms)
 Number     Number       Type             X           Y           Z
 ---------------------------------------------------------------------
      1          6           0        0.747572    0.636250    0.017965
      2          6           0        1.378159   -0.510078   -0.014639
      3          1           0        1.224610    1.590356    0.108413
      4          1           0        2.447026   -0.542360    0.030467
      5          1           0        0.844373   -1.436403   -0.075921
      6          8           0       -0.656024    0.682324    0.044538
      7          8           0       -1.105361    2.005022   -0.395920
      8          1           0       -0.617057    2.148616   -1.227930
 ---------------------------------------------------------------------

 Alpha  occ. eigenvalues --  -20.54042 -20.53146 -11.25203 -11.17802  -1.48131
 Alpha  occ. eigenvalues --   -1.24253  -1.03956  -0.81208  -0.72383  -0.66164
 Alpha  occ. eigenvalues --   -0.64773  -0.58643  -0.54943  -0.52869  -0.48145
 Alpha  occ. eigenvalues --   -0.37163
 Alpha virt. eigenvalues --    0.16476   0.23274   0.26652   0.31118   0.33025
 Alpha virt. eigenvalues --    0.35356   0.49405   0.56552   0.88873   0.96428
 Alpha virt. eigenvalues --    0.98969   1.06256   1.09822   1.10519   1.24727

 Mulliken charges:
               1
     1  C    0.111233
     2  C   -0.491009
     3  H    0.249558
     4  H    0.231327
     5  H    0.248489
     6  O   -0.382368
     7  O   -0.368650
     8  H    0.401421
 Sum of Mulliken charges =   0.00000

 Dipole moment (field-independent basis, Debye):
    X=              2.8092    Y=              0.4149    Z=             -1.7395  Tot=              3.3301
 Quadrupole moment (field-independent basis, Debye-Ang):
   XX=            -24.7737   YY=            -20.5934   ZZ=            -22.7630
   XY=              2.9710   XZ=              0.9674   YZ=             -3.7932

 Normal termination of Gaussian 09 at Fri Apr 12 15:32:07 2019.
