 Gaussian 09, Revision D.01,
 Gaussian 09:  AS64L-G09RevD.01 24-Apr-2013

 --------------------------------------------------------------------
 #p hf 3-21g scf=tight NoSymmetry guess=read opt=(tight,modredundant)
 --------------------------------------------------------------------

 -----------------------------------
 Geometry optimization at the 2D-PES
 -----------------------------------
 Symbolic Z-matrix:
 Charge =  0 Multiplicity = 1

 SCF Done:  E(RHF) =  -226.393601803     A.U. after   13 cycles
 SCF Done:  E(RHF) =  -226.393602799     A.U. after   10 cycles
 SCF Done:  E(RHF) =  -226.393603807     A.U. after   10 cycles
 SCF Done:  E(RHF) =  -226.393603819     A.U. after    7 cycles
 Optimization completed.
    -- Stationary point found.

                          Input orientation:
 ---------------------------------------------------------------------
 Center     Atomic      Atomic             Coordinates (Angstroms)
 Number     Number       Type             X           Y           Z
 ---------------------------------------------------------------------
      1          6           0        0.732061    0.598402    0.056496
      2          6           0        1.393200   -0.527299   -0.024523
      3          1           0        1.191364    1.564436    0.093862
      4          1           0        2.463805   -0.525913   -0.025633
      5          1           0        0.887984   -1.470006   -0.053678
      6          8           0       -0.666369    0.703432    0.020618
      7          8           0       -1.218787   -0.254401    0.993961
      8          1           0       -2.145559    0.040013    0.982787
 ---------------------------------------------------------------------

 Alpha  occ. eigenvalues --  -20.52618 -20.51978 -11.23703 -11.16687  -1.46488
 Alpha  occ. eigenvalues --   -1.23256  -1.02836  -0.78842  -0.70924  -0.65344
 Alpha  occ. eigenvalues --   -0.64411  -0.59772  -0.54242  -0.50924  -0.45665
 Alpha  occ. eigenvalues --   -0.36576
 Alpha virt. eigenvalues --    0.16781   0.25929   0.29260   0.30583   0.32931
 Alpha virt. eigenvalues --    0.37233   0.50289   0.57674   0.89125   0.97660
 Alpha virt. eigenvalues --    0.99696   1.07272   1.10682   1.12479   1.23972

 Mulliken charges:
               1
     1  C    0.143077
     2  C   -0.470375
     3  H    0.246431
     4  H    0.222708
     5  H    0.250615
     6  O   -0.423769
     7  O   -0.386928
     8  H    0.418241
 Sum of Mulliken charges =   0.00000

 Dipole moment (field-independent basis, Debye):
    X=             -0.1032    Y=              0.2804    Z=              0.2513  Tot=              0.3904
 Quadrupole moment (field-independent basis, Debye-Ang):
   XX=            -16.0056   YY=            -22.4869   ZZ=            -25.7016
   XY=              0.5290   XZ=             -2.0642   YZ=              0.9039

 Normal termination of Gaussian 09 at Fri Apr 12 17:10:05 2019.
