 Gaussian 09, Revision D.01,
 Gaussian 09:  AS64L-G09RevD.01 24-Apr-2013

 --------------------------------------------------------------------
 #p hf 3-21g scf=tight NoSymmetry guess=read opt=(tight,modredundant)
 --------------------------------------------------------------------

 -----------------------------------
 Geometry optimization at the 2D-PES
 -----------------------------------
 Symbolic Z-matrix:
 Charge =  0 Multiplicity = 1

 SCF Done:  E(RHF) =  -226.394151252     A.U. after   12 cycles
 SCF Done:  E(RHF) =  -226.394158688     A.U. after   11 cycles
 SCF Done:  E(RHF) =  -226.394164956     A.U. after   10 cycles
 SCF Done:  E(RHF) =  -226.394165014     A.U. after    9 cycles
 SCF Done:  E(RHF) =  -226.394165020     A.U. after    8 cycles
 Optimization completed.
    -- Stationary point found.

                          Input orientation:
 ---------------------------------------------------------------------
 Center     Atomic      Atomic             Coordinates (Angstroms)
 Number     Number       Type             X           Y           Z
 ---------------------------------------------------------------------
      1          6           0        0.742316    0.580577    0.059273
      2          6           0        1.419418   -0.534814   -0.034928
      3          1           0        1.182072    1.556430    0.079428
      4          1           0        2.489339   -0.512337   -0.054238
      5          1           0        0.928140   -1.483549   -0.070669
      6          8           0       -0.656530    0.704729    0.047988
      7          8           0       -1.268728   -0.494343    0.614075
      8          1           0       -1.320370   -0.254762    1.556630
 ---------------------------------------------------------------------

 Alpha  occ. eigenvalues --  -20.53772 -20.52867 -11.24445 -11.16838  -1.47937
 Alpha  occ. eigenvalues --   -1.23738  -1.03529  -0.80035  -0.70149  -0.68696
 Alpha  occ. eigenvalues --   -0.63511  -0.59145  -0.55386  -0.49864  -0.48421
 Alpha  occ. eigenvalues --   -0.36890
 Alpha virt. eigenvalues --    0.17592   0.24230   0.28713   0.29542   0.33026
 Alpha virt. eigenvalues --    0.37099   0.49640   0.57962   0.88440   0.96521
 Alpha virt. eigenvalues --    1.00603   1.06724   1.10021   1.11668   1.23458

 Mulliken charges:
               1
     1  C    0.121000
     2  C   -0.492728
     3  H    0.255133
     4  H    0.223729
     5  H    0.255215
     6  O   -0.398750
     7  O   -0.374591
     8  H    0.410992
 Sum of Mulliken charges =   0.00000

 Dipole moment (field-independent basis, Debye):
    X=              1.6066    Y=              0.2305    Z=              2.1048  Tot=              2.6579
 Quadrupole moment (field-independent basis, Debye-Ang):
   XX=            -22.8940   YY=            -22.7463   ZZ=            -21.0990
   XY=              0.8641   XZ=             -2.9071   YZ=              0.0274

 Normal termination of Gaussian 09 at Fri Apr 12 17:25:23 2019.
