 Gaussian 09, Revision D.01,
 Gaussian 09:  AS64L-G09RevD.01 24-Apr-2013

 --------------------------------------------------------------------
 #p hf 3-21g scf=tight NoSymmetry guess=read opt=(tight,modredundant)
 --------------------------------------------------------------------

 -----------------------------------
 Geometry optimization at the 2D-PES
 -----------------------------------
 Symbolic Z-matrix:
 Charge =  0 Multiplicity = 1

 SCF Done:  E(RHF) =  -226.396022852     A.U. after   13 cycles
 SCF Done:  E(RHF) =  -226.396023042     A.U. after    9 cycles
 SCF Done:  E(RHF) =  -226.396023139     A.U. after    8 cycles
 SCF Done:  E(RHF) =  -226.396023142     A.U. after    6 cycles
 Optimization completed.
    -- Stationary point found.

                          Input orientation:
 ---------------------------------------------------------------------
 Center     Atomic      Atomic             Coordinates (Angstroms)
 Number     Number       Type             X           Y           Z
 ---------------------------------------------------------------------
      1          6           0        0.724265    0.634359    0.054371
      2          6           0        1.367620   -0.504258    0.003134
      3          1           0        1.181594    1.597867    0.120161
      4          1           0        2.437646   -0.523471   -0.015566
      5          1           0        0.842942   -1.436701   -0.038557
      6          8           0       -0.672819    0.670399   -0.021073
      7          8           0       -1.091890    1.694790    0.950523
      8          1           0       -2.053786    1.642648    0.823093
 ---------------------------------------------------------------------

 Alpha  occ. eigenvalues --  -20.53135 -20.52143 -11.24023 -11.16811  -1.47041
 Alpha  occ. eigenvalues --   -1.23718  -1.02724  -0.79579  -0.69811  -0.67851
 Alpha  occ. eigenvalues --   -0.63945  -0.58583  -0.55651  -0.50943  -0.46518
 Alpha  occ. eigenvalues --   -0.36518
 Alpha virt. eigenvalues --    0.17527   0.25293   0.28290   0.31893   0.33045
 Alpha virt. eigenvalues --    0.36136   0.49835   0.57421   0.90026   0.97416
 Alpha virt. eigenvalues --    1.00001   1.07101   1.10772   1.12200   1.23783

 Mulliken charges:
               1
     1  C    0.167621
     2  C   -0.492040
     3  H    0.252889
     4  H    0.226246
     5  H    0.239676
     6  O   -0.420975
     7  O   -0.394073
     8  H    0.420657
 Sum of Mulliken charges =   0.00000

 Dipole moment (field-independent basis, Debye):
    X=             -0.2152    Y=              0.0843    Z=             -0.0337  Tot=              0.2335
 Quadrupole moment (field-independent basis, Debye-Ang):
   XX=            -16.2596   YY=            -22.2243   ZZ=            -26.2240
   XY=             -2.1107   XZ=             -1.5989   YZ=             -0.1545

 Normal termination of Gaussian 09 at Fri Apr 12 16:01:09 2019.
