 Gaussian 09, Revision D.01,
 Gaussian 09:  AS64L-G09RevD.01 24-Apr-2013

 --------------------------------------------------------------------
 #p hf 3-21g scf=tight NoSymmetry guess=read opt=(tight,modredundant)
 --------------------------------------------------------------------

 -----------------------------------
 Geometry optimization at the 2D-PES
 -----------------------------------
 Symbolic Z-matrix:
 Charge =  0 Multiplicity = 1

 SCF Done:  E(RHF) =  -226.381017302     A.U. after   14 cycles
 SCF Done:  E(RHF) =  -226.381061364     A.U. after   12 cycles
 SCF Done:  E(RHF) =  -226.381067601     A.U. after   11 cycles
 SCF Done:  E(RHF) =  -226.381068058     A.U. after    9 cycles
 SCF Done:  E(RHF) =  -226.381068108     A.U. after    8 cycles
 SCF Done:  E(RHF) =  -226.381068112     A.U. after    7 cycles
 SCF Done:  E(RHF) =  -226.381068112     A.U. after    6 cycles
 Optimization completed.
    -- Stationary point found.

                          Input orientation:
 ---------------------------------------------------------------------
 Center     Atomic      Atomic             Coordinates (Angstroms)
 Number     Number       Type             X           Y           Z
 ---------------------------------------------------------------------
      1          6           0        0.750305    0.610743    0.034262
      2          6           0        1.402134   -0.525837   -0.018245
      3          1           0        1.221461    1.570790    0.075493
      4          1           0        2.472765   -0.542274   -0.010866
      5          1           0        0.883693   -1.461924   -0.085371
      6          8           0       -0.657280    0.678644    0.009786
      7          8           0       -1.234284    0.158047    1.268869
      8          1           0       -0.455022   -0.101369    1.795739
 ---------------------------------------------------------------------

 Alpha  occ. eigenvalues --  -20.52817 -20.52024 -11.25437 -11.19626  -1.46458
 Alpha  occ. eigenvalues --   -1.23451  -1.05254  -0.81208  -0.71965  -0.67793
 Alpha  occ. eigenvalues --   -0.60113  -0.59943  -0.56588  -0.52935  -0.44764
 Alpha  occ. eigenvalues --   -0.39459
 Alpha virt. eigenvalues --    0.13706   0.25819   0.27579   0.29038   0.30370
 Alpha virt. eigenvalues --    0.36530   0.49728   0.54888   0.87285   0.96401
 Alpha virt. eigenvalues --    0.98288   1.04334   1.08105   1.10994   1.23185

 Mulliken charges:
               1
     1  C    0.077552
     2  C   -0.467106
     3  H    0.251367
     4  H    0.237647
     5  H    0.255131
     6  O   -0.381948
     7  O   -0.371125
     8  H    0.398481
 Sum of Mulliken charges =   0.00000

 Dipole moment (field-independent basis, Debye):
    X=              3.6512    Y=             -0.8350    Z=              1.1870  Tot=              3.9290
 Quadrupole moment (field-independent basis, Debye-Ang):
   XX=            -25.4088   YY=            -22.1907   ZZ=            -22.1636
   XY=              1.6266   XZ=              1.4589   YZ=             -0.5404

 Normal termination of Gaussian 09 at Fri Apr 12 16:49:23 2019.
