 Gaussian 09, Revision D.01,
 Gaussian 09:  AS64L-G09RevD.01 24-Apr-2013

 --------------------------------------------------------------------
 #p hf 3-21g scf=tight NoSymmetry guess=read opt=(tight,modredundant)
 --------------------------------------------------------------------

 -----------------------------------
 Geometry optimization at the 2D-PES
 -----------------------------------
 Symbolic Z-matrix:
 Charge =  0 Multiplicity = 1

 SCF Done:  E(RHF) =  -226.393027964     A.U. after   13 cycles
 SCF Done:  E(RHF) =  -226.393036822     A.U. after   12 cycles
 SCF Done:  E(RHF) =  -226.393043155     A.U. after   10 cycles
 SCF Done:  E(RHF) =  -226.393043228     A.U. after    8 cycles
 SCF Done:  E(RHF) =  -226.393043231     A.U. after    7 cycles
 Optimization completed.
    -- Stationary point found.

                          Input orientation:
 ---------------------------------------------------------------------
 Center     Atomic      Atomic             Coordinates (Angstroms)
 Number     Number       Type             X           Y           Z
 ---------------------------------------------------------------------
      1          6           0        0.735495    0.593455    0.063333
      2          6           0        1.402685   -0.527957   -0.027927
      3          1           0        1.191347    1.560926    0.093214
      4          1           0        2.472930   -0.519872   -0.043707
      5          1           0        0.908757   -1.477101   -0.042626
      6          8           0       -0.664478    0.702881    0.031311
      7          8           0       -1.239180   -0.250816    0.988148
      8          1           0       -1.898614   -0.682310    0.418618
 ---------------------------------------------------------------------

 Alpha  occ. eigenvalues --  -20.52943 -20.52362 -11.24026 -11.17066  -1.46984
 Alpha  occ. eigenvalues --   -1.23454  -1.03275  -0.79114  -0.69620  -0.69113
 Alpha  occ. eigenvalues --   -0.64729  -0.57212  -0.54332  -0.51454  -0.46971
 Alpha  occ. eigenvalues --   -0.36825
 Alpha virt. eigenvalues --    0.16427   0.25478   0.29314   0.29977   0.32428
 Alpha virt. eigenvalues --    0.37171   0.50008   0.57346   0.88829   0.97103
 Alpha virt. eigenvalues --    1.00003   1.06841   1.10079   1.12772   1.22641

 Mulliken charges:
               1
     1  C    0.145056
     2  C   -0.474420
     3  H    0.251074
     4  H    0.226380
     5  H    0.233942
     6  O   -0.417042
     7  O   -0.379493
     8  H    0.414504
 Sum of Mulliken charges =   0.00000

 Dipole moment (field-independent basis, Debye):
    X=              0.4480    Y=             -1.1844    Z=             -0.9359  Tot=              1.5746
 Quadrupole moment (field-independent basis, Debye-Ang):
   XX=            -18.3983   YY=            -21.4513   ZZ=            -27.3623
   XY=              3.7791   XZ=              0.9694   YZ=              0.2238

 Normal termination of Gaussian 09 at Fri Apr 12 17:11:46 2019.
