 Gaussian 09, Revision D.01,
 Gaussian 09:  AS64L-G09RevD.01 24-Apr-2013

 --------------------------------------------------------------------
 #p hf 3-21g scf=tight NoSymmetry guess=read opt=(tight,modredundant)
 --------------------------------------------------------------------

 -----------------------------------
 Geometry optimization at the 2D-PES
 -----------------------------------
 Symbolic Z-matrix:
 Charge =  0 Multiplicity = 1

 SCF Done:  E(RHF) =  -226.393562073     A.U. after   13 cycles
 SCF Done:  E(RHF) =  -226.393563089     A.U. after   11 cycles
 SCF Done:  E(RHF) =  -226.393563537     A.U. after    9 cycles
 SCF Done:  E(RHF) =  -226.393563559     A.U. after    7 cycles
 SCF Done:  E(RHF) =  -226.393563560     A.U. after    6 cycles
 Optimization completed.
    -- Stationary point found.

                          Input orientation:
 ---------------------------------------------------------------------
 Center     Atomic      Atomic             Coordinates (Angstroms)
 Number     Number       Type             X           Y           Z
 ---------------------------------------------------------------------
      1          6           0        0.724661    0.627607    0.041346
      2          6           0        1.369489   -0.509343    0.000854
      3          1           0        1.190243    1.586355    0.130425
      4          1           0        2.440040   -0.533521    0.013900
      5          1           0        0.841351   -1.438934   -0.058570
      6          8           0       -0.680413    0.665418   -0.027901
      7          8           0       -1.142886    0.832525    1.366114
      8          1           0       -2.037055    1.172925    1.191880
 ---------------------------------------------------------------------

 Alpha  occ. eigenvalues --  -20.52235 -20.51453 -11.23548 -11.17588  -1.45974
 Alpha  occ. eigenvalues --   -1.22935  -1.02988  -0.79110  -0.69412  -0.67633
 Alpha  occ. eigenvalues --   -0.64407  -0.57235  -0.55100  -0.51178  -0.43882
 Alpha  occ. eigenvalues --   -0.38260
 Alpha virt. eigenvalues --    0.15706   0.27738   0.29045   0.30961   0.32130
 Alpha virt. eigenvalues --    0.36414   0.49419   0.56959   0.89183   0.97539
 Alpha virt. eigenvalues --    0.99292   1.07236   1.10561   1.12484   1.23388

 Mulliken charges:
               1
     1  C    0.142427
     2  C   -0.452456
     3  H    0.234566
     4  H    0.226570
     5  H    0.247570
     6  O   -0.418956
     7  O   -0.393477
     8  H    0.413756
 Sum of Mulliken charges =   0.00000

 Dipole moment (field-independent basis, Debye):
    X=              0.1694    Y=              0.4939    Z=             -0.0687  Tot=              0.5266
 Quadrupole moment (field-independent basis, Debye-Ang):
   XX=            -16.6187   YY=            -20.6499   ZZ=            -26.6077
   XY=             -2.1235   XZ=             -1.9572   YZ=              0.9918

 Normal termination of Gaussian 09 at Fri Apr 12 16:29:27 2019.
