 Gaussian 09, Revision D.01,
 Gaussian 09:  AS64L-G09RevD.01 24-Apr-2013

 --------------------------------------------------------------------
 #p hf 3-21g scf=tight NoSymmetry guess=read opt=(tight,modredundant)
 --------------------------------------------------------------------

 -----------------------------------
 Geometry optimization at the 2D-PES
 -----------------------------------
 Symbolic Z-matrix:
 Charge =  0 Multiplicity = 1

 SCF Done:  E(RHF) =  -226.391837420     A.U. after   13 cycles
 SCF Done:  E(RHF) =  -226.391841656     A.U. after   11 cycles
 SCF Done:  E(RHF) =  -226.391843350     A.U. after   10 cycles
 SCF Done:  E(RHF) =  -226.391843410     A.U. after    8 cycles
 SCF Done:  E(RHF) =  -226.391843411     A.U. after    6 cycles
 SCF Done:  E(RHF) =  -226.391843412     A.U. after    6 cycles
 Optimization completed.
    -- Stationary point found.

                          Input orientation:
 ---------------------------------------------------------------------
 Center     Atomic      Atomic             Coordinates (Angstroms)
 Number     Number       Type             X           Y           Z
 ---------------------------------------------------------------------
      1          6           0        0.730643    0.611303    0.049534
      2          6           0        1.383382   -0.520104   -0.014345
      3          1           0        1.199116    1.571290    0.106799
      4          1           0        2.454042   -0.533360   -0.006736
      5          1           0        0.869380   -1.458600   -0.056239
      6          8           0       -0.674626    0.687724    0.000348
      7          8           0       -1.195213    0.128555    1.263124
      8          1           0       -2.043400   -0.218406    0.937975
 ---------------------------------------------------------------------

 Alpha  occ. eigenvalues --  -20.52228 -20.51693 -11.23650 -11.17524  -1.46068
 Alpha  occ. eigenvalues --   -1.22967  -1.03174  -0.78963  -0.69216  -0.68494
 Alpha  occ. eigenvalues --   -0.64127  -0.57589  -0.54909  -0.50916  -0.44865
 Alpha  occ. eigenvalues --   -0.37674
 Alpha virt. eigenvalues --    0.15496   0.27064   0.29468   0.30301   0.31890
 Alpha virt. eigenvalues --    0.36985   0.49892   0.56893   0.88863   0.97421
 Alpha virt. eigenvalues --    0.99370   1.06804   1.10120   1.12683   1.23126

 Mulliken charges:
               1
     1  C    0.139967
     2  C   -0.453969
     3  H    0.242088
     4  H    0.227330
     5  H    0.239200
     6  O   -0.421745
     7  O   -0.386715
     8  H    0.413843
 Sum of Mulliken charges =   0.00000

 Dipole moment (field-independent basis, Debye):
    X=              0.2258    Y=             -1.0623    Z=             -0.3683  Tot=              1.1468
 Quadrupole moment (field-independent basis, Debye-Ang):
   XX=            -16.7835   YY=            -22.2193   ZZ=            -27.1476
   XY=              2.7169   XZ=             -0.9084   YZ=             -0.4422

 Normal termination of Gaussian 09 at Fri Apr 12 16:54:50 2019.
