 Gaussian 09, Revision D.01,
 Gaussian 09:  AS64L-G09RevD.01 24-Apr-2013

 --------------------------------------------------------------------
 #p hf 3-21g scf=tight NoSymmetry guess=read opt=(tight,modredundant)
 --------------------------------------------------------------------

 -----------------------------------
 Geometry optimization at the 2D-PES
 -----------------------------------
 Symbolic Z-matrix:
 Charge =  0 Multiplicity = 1

 SCF Done:  E(RHF) =  -226.397793235     A.U. after   13 cycles
 SCF Done:  E(RHF) =  -226.397801155     A.U. after   11 cycles
 SCF Done:  E(RHF) =  -226.397811012     A.U. after   10 cycles
 SCF Done:  E(RHF) =  -226.397811153     A.U. after    9 cycles
 SCF Done:  E(RHF) =  -226.397811162     A.U. after    8 cycles
 Optimization completed.
    -- Stationary point found.

                          Input orientation:
 ---------------------------------------------------------------------
 Center     Atomic      Atomic             Coordinates (Angstroms)
 Number     Number       Type             X           Y           Z
 ---------------------------------------------------------------------
      1          6           0        0.738764    0.571254    0.031208
      2          6           0        1.430228   -0.535614   -0.058730
      3          1           0        1.167370    1.549301    0.106108
      4          1           0        2.499501   -0.494101   -0.064830
      5          1           0        0.957122   -1.491161   -0.110732
      6          8           0       -0.651494    0.706900    0.049113
      7          8           0       -1.284984   -0.602235   -0.049621
      8          1           0       -1.662249   -0.551924   -0.945078
 ---------------------------------------------------------------------

 Alpha  occ. eigenvalues --  -20.54217 -20.53137 -11.24523 -11.16122  -1.48405
 Alpha  occ. eigenvalues --   -1.24182  -1.03230  -0.79664  -0.70709  -0.68760
 Alpha  occ. eigenvalues --   -0.64659  -0.58053  -0.54276  -0.51551  -0.48815
 Alpha  occ. eigenvalues --   -0.36154
 Alpha virt. eigenvalues --    0.19863   0.22494   0.28733   0.29846   0.33673
 Alpha virt. eigenvalues --    0.37247   0.49660   0.58829   0.88897   0.96679
 Alpha virt. eigenvalues --    1.01676   1.07170   1.10342   1.12426   1.22506

 Mulliken charges:
               1
     1  C    0.145990
     2  C   -0.511396
     3  H    0.259815
     4  H    0.221094
     5  H    0.249214
     6  O   -0.407502
     7  O   -0.374507
     8  H    0.417293
 Sum of Mulliken charges =   0.00000

 Dipole moment (field-independent basis, Debye):
    X=              0.7549    Y=             -0.0680    Z=             -1.9185  Tot=              2.0628
 Quadrupole moment (field-independent basis, Debye-Ang):
   XX=            -20.8502   YY=            -22.5080   ZZ=            -23.6797
   XY=              2.0285   XZ=              3.5810   YZ=              1.3475

 Normal termination of Gaussian 09 at Fri Apr 12 17:57:33 2019.
