 Gaussian 09, Revision D.01,
 Gaussian 09:  AS64L-G09RevD.01 24-Apr-2013

 --------------------------------------------------------------------
 #p hf 3-21g scf=tight NoSymmetry guess=read opt=(tight,modredundant)
 --------------------------------------------------------------------

 -----------------------------------
 Geometry optimization at the 2D-PES
 -----------------------------------
 Symbolic Z-matrix:
 Charge =  0 Multiplicity = 1

 SCF Done:  E(RHF) =  -226.395656533     A.U. after   13 cycles
 SCF Done:  E(RHF) =  -226.395663208     A.U. after   11 cycles
 SCF Done:  E(RHF) =  -226.395669240     A.U. after   10 cycles
 SCF Done:  E(RHF) =  -226.395669312     A.U. after    8 cycles
 SCF Done:  E(RHF) =  -226.395669315     A.U. after    7 cycles
 Optimization completed.
    -- Stationary point found.

                          Input orientation:
 ---------------------------------------------------------------------
 Center     Atomic      Atomic             Coordinates (Angstroms)
 Number     Number       Type             X           Y           Z
 ---------------------------------------------------------------------
      1          6           0        0.729567    0.635665    0.045407
      2          6           0        1.369025   -0.505604   -0.006061
      3          1           0        1.188266    1.597919    0.105978
      4          1           0        2.438994   -0.523614   -0.003953
      5          1           0        0.847062   -1.439442   -0.051896
      6          8           0       -0.670287    0.677750    0.004746
      7          8           0       -1.065766    2.050597    0.321862
      8          1           0       -1.677395    2.223523   -0.413467
 ---------------------------------------------------------------------

 Alpha  occ. eigenvalues --  -20.53755 -20.53000 -11.24330 -11.16299  -1.48036
 Alpha  occ. eigenvalues --   -1.24138  -1.02696  -0.79812  -0.71042  -0.67432
 Alpha  occ. eigenvalues --   -0.64934  -0.57471  -0.55200  -0.51783  -0.48580
 Alpha  occ. eigenvalues --   -0.35775
 Alpha virt. eigenvalues --    0.19288   0.22605   0.27661   0.32119   0.33929
 Alpha virt. eigenvalues --    0.35958   0.49845   0.57775   0.90421   0.97095
 Alpha virt. eigenvalues --    1.00485   1.06464   1.11004   1.12790   1.22138

 Mulliken charges:
               1
     1  C    0.162956
     2  C   -0.510410
     3  H    0.261041
     4  H    0.226011
     5  H    0.238358
     6  O   -0.414487
     7  O   -0.382638
     8  H    0.419169
 Sum of Mulliken charges =   0.00000

 Dipole moment (field-independent basis, Debye):
    X=              0.4023    Y=              0.8384    Z=             -1.4706  Tot=              1.7399
 Quadrupole moment (field-independent basis, Debye-Ang):
   XX=            -19.5058   YY=            -19.8886   ZZ=            -25.5430
   XY=             -2.1562   XZ=              2.4501   YZ=             -3.2379

 Normal termination of Gaussian 09 at Fri Apr 12 15:47:17 2019.
