 Gaussian 09, Revision D.01,
 Gaussian 09:  AS64L-G09RevD.01 24-Apr-2013

 --------------------------------------------------------------------
 #p hf 3-21g scf=tight NoSymmetry guess=read opt=(tight,modredundant)
 --------------------------------------------------------------------

 -----------------------------------
 Geometry optimization at the 2D-PES
 -----------------------------------
 Symbolic Z-matrix:
 Charge =  0 Multiplicity = 1

 SCF Done:  E(RHF) =  -226.381606965     A.U. after   14 cycles
 SCF Done:  E(RHF) =  -226.381626341     A.U. after   13 cycles
 SCF Done:  E(RHF) =  -226.381877779     A.U. after   12 cycles
 SCF Done:  E(RHF) =  -226.381882179     A.U. after   11 cycles
 SCF Done:  E(RHF) =  -226.381883165     A.U. after    9 cycles
 SCF Done:  E(RHF) =  -226.381883204     A.U. after    8 cycles
 SCF Done:  E(RHF) =  -226.381883206     A.U. after    6 cycles
 Optimization completed.
    -- Stationary point found.

                          Input orientation:
 ---------------------------------------------------------------------
 Center     Atomic      Atomic             Coordinates (Angstroms)
 Number     Number       Type             X           Y           Z
 ---------------------------------------------------------------------
      1          6           0        0.739408    0.563737    0.024374
      2          6           0        1.462754   -0.530912    0.022832
      3          1           0        1.164713    1.543895    0.078305
      4          1           0        2.528996   -0.454600    0.057706
      5          1           0        1.060528   -1.524120    0.023027
      6          8           0       -0.644155    0.691147   -0.021126
      7          8           0       -1.361417   -0.479321   -0.528503
      8          1           0       -0.672093   -1.132710   -0.736638
 ---------------------------------------------------------------------

 Alpha  occ. eigenvalues --  -20.54689 -20.53277 -11.26648 -11.18493  -1.48502
 Alpha  occ. eigenvalues --   -1.25066  -1.05516  -0.81548  -0.73563  -0.68245
 Alpha  occ. eigenvalues --   -0.64087  -0.58857  -0.54655  -0.54434  -0.48852
 Alpha  occ. eigenvalues --   -0.37462
 Alpha virt. eigenvalues --    0.17108   0.21467   0.26923   0.27609   0.35129
 Alpha virt. eigenvalues --    0.36833   0.49456   0.59700   0.87814   0.95233
 Alpha virt. eigenvalues --    1.01392   1.05298   1.07712   1.10833   1.23455

 Mulliken charges:
               1
     1  C    0.148020
     2  C   -0.540835
     3  H    0.273831
     4  H    0.242880
     5  H    0.213544
     6  O   -0.389855
     7  O   -0.363089
     8  H    0.415505
 Sum of Mulliken charges =   0.00000

 Dipole moment (field-independent basis, Debye):
    X=              3.0335    Y=             -1.2379    Z=             -0.4126  Tot=              3.3023
 Quadrupole moment (field-independent basis, Debye-Ang):
   XX=            -25.8641   YY=            -19.9705   ZZ=            -25.2660
   XY=              1.9916   XZ=             -0.2332   YZ=              1.3731

 Normal termination of Gaussian 09 at Fri Apr 12 14:56:38 2019.
