 Gaussian 09, Revision D.01,
 Gaussian 09:  AS64L-G09RevD.01 24-Apr-2013

 --------------------------------------------------------------------
 #p hf 3-21g scf=tight NoSymmetry guess=read opt=(tight,modredundant)
 --------------------------------------------------------------------

 -----------------------------------
 Geometry optimization at the 2D-PES
 -----------------------------------
 Symbolic Z-matrix:
 Charge =  0 Multiplicity = 1

 SCF Done:  E(RHF) =  -226.391723185     A.U. after   13 cycles
 SCF Done:  E(RHF) =  -226.391729839     A.U. after   11 cycles
 SCF Done:  E(RHF) =  -226.391733838     A.U. after   10 cycles
 SCF Done:  E(RHF) =  -226.391733891     A.U. after    8 cycles
 SCF Done:  E(RHF) =  -226.391733895     A.U. after    6 cycles
 Optimization completed.
    -- Stationary point found.

                          Input orientation:
 ---------------------------------------------------------------------
 Center     Atomic      Atomic             Coordinates (Angstroms)
 Number     Number       Type             X           Y           Z
 ---------------------------------------------------------------------
      1          6           0        0.731748    0.612977    0.044988
      2          6           0        1.382043   -0.519770   -0.013094
      3          1           0        1.201746    1.572810    0.106486
      4          1           0        2.452743   -0.535648    0.001776
      5          1           0        0.862346   -1.454698   -0.061738
      6          8           0       -0.674790    0.685099   -0.004281
      7          8           0       -1.191631    0.131505    1.261833
      8          1           0       -1.915800    0.759586    1.427245
 ---------------------------------------------------------------------

 Alpha  occ. eigenvalues --  -20.52195 -20.51615 -11.23535 -11.17376  -1.46026
 Alpha  occ. eigenvalues --   -1.22863  -1.03028  -0.79053  -0.70378  -0.65608
 Alpha  occ. eigenvalues --   -0.64426  -0.59207  -0.55017  -0.49713  -0.44560
 Alpha  occ. eigenvalues --   -0.37923
 Alpha virt. eigenvalues --    0.15716   0.26707   0.29448   0.30731   0.32304
 Alpha virt. eigenvalues --    0.36882   0.49879   0.56968   0.88804   0.97645
 Alpha virt. eigenvalues --    0.98870   1.07036   1.10473   1.12829   1.23393

 Mulliken charges:
               1
     1  C    0.131834
     2  C   -0.451008
     3  H    0.235576
     4  H    0.225036
     5  H    0.251779
     6  O   -0.418176
     7  O   -0.388075
     8  H    0.413034
 Sum of Mulliken charges =   0.00000

 Dipole moment (field-independent basis, Debye):
    X=              0.4990    Y=              0.9513    Z=              0.6709  Tot=              1.2665
 Quadrupole moment (field-independent basis, Debye-Ang):
   XX=            -17.9682   YY=            -21.0309   ZZ=            -24.6079
   XY=             -1.7653   XZ=             -2.8096   YZ=              2.3995

 Normal termination of Gaussian 09 at Fri Apr 12 16:53:08 2019.
