 Gaussian 09, Revision D.01,
 Gaussian 09:  AS64L-G09RevD.01 24-Apr-2013

 --------------------------------------------------------------------
 #p hf 3-21g scf=tight NoSymmetry guess=read opt=(tight,modredundant)
 --------------------------------------------------------------------

 -----------------------------------
 Geometry optimization at the 2D-PES
 -----------------------------------
 Symbolic Z-matrix:
 Charge =  0 Multiplicity = 1

 SCF Done:  E(RHF) =  -226.392213197     A.U. after   12 cycles
 SCF Done:  E(RHF) =  -226.392221893     A.U. after   12 cycles
 SCF Done:  E(RHF) =  -226.392227159     A.U. after   10 cycles
 SCF Done:  E(RHF) =  -226.392227231     A.U. after    8 cycles
 SCF Done:  E(RHF) =  -226.392227234     A.U. after    7 cycles
 SCF Done:  E(RHF) =  -226.392227234     A.U. after    6 cycles
 Optimization completed.
    -- Stationary point found.

                          Input orientation:
 ---------------------------------------------------------------------
 Center     Atomic      Atomic             Coordinates (Angstroms)
 Number     Number       Type             X           Y           Z
 ---------------------------------------------------------------------
      1          6           0        0.733138    0.603142    0.057526
      2          6           0        1.393641   -0.522912   -0.021779
      3          1           0        1.195460    1.566939    0.100439
      4          1           0        2.464217   -0.525407   -0.026074
      5          1           0        0.889876   -1.467118   -0.050177
      6          8           0       -0.670101    0.694930    0.017577
      7          8           0       -1.215667   -0.078816    1.145132
      8          1           0       -1.979259   -0.487179    0.702995
 ---------------------------------------------------------------------

 Alpha  occ. eigenvalues --  -20.52528 -20.52005 -11.23811 -11.17312  -1.46470
 Alpha  occ. eigenvalues --   -1.23177  -1.03220  -0.79005  -0.69382  -0.68795
 Alpha  occ. eigenvalues --   -0.64423  -0.57418  -0.54637  -0.51105  -0.45926
 Alpha  occ. eigenvalues --   -0.37197
 Alpha virt. eigenvalues --    0.15861   0.26322   0.29439   0.30147   0.32098
 Alpha virt. eigenvalues --    0.37103   0.50001   0.57062   0.88839   0.97275
 Alpha virt. eigenvalues --    0.99667   1.06793   1.10086   1.12794   1.22783

 Mulliken charges:
               1
     1  C    0.142107
     2  C   -0.462827
     3  H    0.246456
     4  H    0.226949
     5  H    0.236298
     6  O   -0.419990
     7  O   -0.383104
     8  H    0.414112
 Sum of Mulliken charges =   0.00000

 Dipole moment (field-independent basis, Debye):
    X=              0.3264    Y=             -1.1723    Z=             -0.6353  Tot=              1.3728
 Quadrupole moment (field-independent basis, Debye-Ang):
   XX=            -17.5094   YY=            -21.8023   ZZ=            -27.3791
   XY=              3.4182   XZ=              0.0058   YZ=             -0.2176

 Normal termination of Gaussian 09 at Fri Apr 12 16:59:08 2019.
