 Gaussian 09, Revision D.01,
 Gaussian 09:  AS64L-G09RevD.01 24-Apr-2013

 --------------------------------------------------------------------
 #p hf 3-21g scf=tight NoSymmetry guess=read opt=(tight,modredundant)
 --------------------------------------------------------------------

 -----------------------------------
 Geometry optimization at the 2D-PES
 -----------------------------------
 Symbolic Z-matrix:
 Charge =  0 Multiplicity = 1

 SCF Done:  E(RHF) =  -226.379027880     A.U. after   13 cycles
 SCF Done:  E(RHF) =  -226.379034848     A.U. after   12 cycles
 SCF Done:  E(RHF) =  -226.379042558     A.U. after   11 cycles
 SCF Done:  E(RHF) =  -226.379042590     A.U. after    9 cycles
 SCF Done:  E(RHF) =  -226.379042595     A.U. after    8 cycles
 Optimization completed.
    -- Stationary point found.

                          Input orientation:
 ---------------------------------------------------------------------
 Center     Atomic      Atomic             Coordinates (Angstroms)
 Number     Number       Type             X           Y           Z
 ---------------------------------------------------------------------
      1          6           0        0.767788    0.629629    0.049559
      2          6           0        1.383971   -0.523693    0.000556
      3          1           0        1.285119    1.568117    0.095333
      4          1           0        2.453131   -0.567272   -0.000641
      5          1           0        0.836766   -1.442780   -0.042469
      6          8           0       -0.629782    0.702500   -0.004749
      7          8           0       -1.138833    2.043822    0.296534
      8          1           0       -0.384400    2.642932    0.150347
 ---------------------------------------------------------------------

 Alpha  occ. eigenvalues --  -20.54208 -20.53349 -11.25995 -11.17629  -1.48104
 Alpha  occ. eigenvalues --   -1.24739  -1.04174  -0.82183  -0.71914  -0.67129
 Alpha  occ. eigenvalues --   -0.64172  -0.58578  -0.55463  -0.52736  -0.49298
 Alpha  occ. eigenvalues --   -0.36530
 Alpha virt. eigenvalues --    0.17988   0.21880   0.23233   0.31006   0.34132
 Alpha virt. eigenvalues --    0.35915   0.51771   0.56366   0.88834   0.95784
 Alpha virt. eigenvalues --    0.99143   1.05488   1.09881   1.11229   1.22957

 Mulliken charges:
               1
     1  C    0.130624
     2  C   -0.492409
     3  H    0.224598
     4  H    0.230644
     5  H    0.250819
     6  O   -0.383836
     7  O   -0.359570
     8  H    0.399130
 Sum of Mulliken charges =   0.00000

 Dipole moment (field-independent basis, Debye):
    X=              3.2812    Y=              1.3277    Z=             -0.1938  Tot=              3.5449
 Quadrupole moment (field-independent basis, Debye-Ang):
   XX=            -25.2841   YY=            -15.9192   ZZ=            -25.9677
   XY=              3.8305   XZ=              0.5547   YZ=             -0.1921

 Normal termination of Gaussian 09 at Fri Apr 12 15:44:15 2019.
