 Gaussian 09, Revision D.01,
 Gaussian 09:  AS64L-G09RevD.01 24-Apr-2013

 --------------------------------------------------------------------
 #p hf 3-21g scf=tight NoSymmetry guess=read opt=(tight,modredundant)
 --------------------------------------------------------------------

 -----------------------------------
 Geometry optimization at the 2D-PES
 -----------------------------------
 Symbolic Z-matrix:
 Charge =  0 Multiplicity = 1

 SCF Done:  E(RHF) =  -226.395566660     A.U. after   13 cycles
 SCF Done:  E(RHF) =  -226.395571942     A.U. after   11 cycles
 SCF Done:  E(RHF) =  -226.395576578     A.U. after   10 cycles
 SCF Done:  E(RHF) =  -226.395576646     A.U. after    9 cycles
 SCF Done:  E(RHF) =  -226.395576651     A.U. after    7 cycles
 Optimization completed.
    -- Stationary point found.

                          Input orientation:
 ---------------------------------------------------------------------
 Center     Atomic      Atomic             Coordinates (Angstroms)
 Number     Number       Type             X           Y           Z
 ---------------------------------------------------------------------
      1          6           0        0.726598    0.635716    0.039292
      2          6           0        1.368512   -0.504303   -0.012442
      3          1           0        1.183370    1.598888    0.098404
      4          1           0        2.438458   -0.519759   -0.001020
      5          1           0        0.849615   -1.439675   -0.062649
      6          8           0       -0.673957    0.674522    0.027466
      7          8           0       -1.063126    2.083400    0.095384
      8          1           0       -1.693960    2.120544   -0.643118
 ---------------------------------------------------------------------

 Alpha  occ. eigenvalues --  -20.53776 -20.53029 -11.24350 -11.16262  -1.48067
 Alpha  occ. eigenvalues --   -1.24156  -1.02694  -0.79833  -0.71280  -0.67046
 Alpha  occ. eigenvalues --   -0.64678  -0.58393  -0.55180  -0.51210  -0.48770
 Alpha  occ. eigenvalues --   -0.35753
 Alpha virt. eigenvalues --    0.19593   0.22248   0.27586   0.32107   0.34091
 Alpha virt. eigenvalues --    0.35952   0.49903   0.57798   0.90432   0.97083
 Alpha virt. eigenvalues --    1.00461   1.06480   1.10998   1.12808   1.22044

 Mulliken charges:
               1
     1  C    0.162388
     2  C   -0.512283
     3  H    0.263873
     4  H    0.226141
     5  H    0.237317
     6  O   -0.414437
     7  O   -0.382844
     8  H    0.419844
 Sum of Mulliken charges =   0.00000

 Dipole moment (field-independent basis, Debye):
    X=              0.3506    Y=              0.5856    Z=             -1.5569  Tot=              1.6999
 Quadrupole moment (field-independent basis, Debye-Ang):
   XX=            -19.3820   YY=            -21.1419   ZZ=            -24.7946
   XY=             -1.7556   XZ=              2.9032   YZ=             -3.2625

 Normal termination of Gaussian 09 at Fri Apr 12 15:39:10 2019.
