 Gaussian 09, Revision D.01,
 Gaussian 09:  AS64L-G09RevD.01 24-Apr-2013

 --------------------------------------------------------------------
 #p hf 3-21g scf=tight NoSymmetry guess=read opt=(tight,modredundant)
 --------------------------------------------------------------------

 -----------------------------------
 Geometry optimization at the 2D-PES
 -----------------------------------
 Symbolic Z-matrix:
 Charge =  0 Multiplicity = 1

 SCF Done:  E(RHF) =  -226.385556805     A.U. after   13 cycles
 SCF Done:  E(RHF) =  -226.385585083     A.U. after   12 cycles
 SCF Done:  E(RHF) =  -226.385610786     A.U. after   12 cycles
 SCF Done:  E(RHF) =  -226.385611025     A.U. after   10 cycles
 SCF Done:  E(RHF) =  -226.385611072     A.U. after    9 cycles
 SCF Done:  E(RHF) =  -226.385611075     A.U. after    7 cycles
 Optimization completed.
    -- Stationary point found.

                          Input orientation:
 ---------------------------------------------------------------------
 Center     Atomic      Atomic             Coordinates (Angstroms)
 Number     Number       Type             X           Y           Z
 ---------------------------------------------------------------------
      1          6           0        0.749637    0.635039    0.022499
      2          6           0        1.379052   -0.511830   -0.010522
      3          1           0        1.232396    1.586020    0.115935
      4          1           0        2.448157   -0.543604    0.026292
      5          1           0        0.845328   -1.438256   -0.069468
      6          8           0       -0.653865    0.685500    0.031024
      7          8           0       -1.102860    2.063538   -0.169940
      8          1           0       -0.602404    2.357699   -0.953580
 ---------------------------------------------------------------------

 Alpha  occ. eigenvalues --  -20.54130 -20.53329 -11.25332 -11.17561  -1.48279
 Alpha  occ. eigenvalues --   -1.24370  -1.03893  -0.81326  -0.72252  -0.66318
 Alpha  occ. eigenvalues --   -0.65127  -0.58205  -0.54757  -0.53286  -0.48567
 Alpha  occ. eigenvalues --   -0.36832
 Alpha virt. eigenvalues --    0.17118   0.22550   0.26035   0.31240   0.33418
 Alpha virt. eigenvalues --    0.35379   0.49772   0.56610   0.88963   0.96388
 Alpha virt. eigenvalues --    0.99085   1.06190   1.09946   1.10688   1.24497

 Mulliken charges:
               1
     1  C    0.119197
     2  C   -0.495363
     3  H    0.245941
     4  H    0.230659
     5  H    0.247911
     6  O   -0.384061
     7  O   -0.365610
     8  H    0.401327
 Sum of Mulliken charges =   0.00000

 Dipole moment (field-independent basis, Debye):
    X=              2.7977    Y=              0.7820    Z=             -1.5963  Tot=              3.3147
 Quadrupole moment (field-independent basis, Debye-Ang):
   XX=            -24.8189   YY=            -19.0391   ZZ=            -23.8033
   XY=              2.9110   XZ=              1.0415   YZ=             -3.8880

 Normal termination of Gaussian 09 at Fri Apr 12 15:34:50 2019.
