 Gaussian 09, Revision D.01,
 Gaussian 09:  AS64L-G09RevD.01 24-Apr-2013

 --------------------------------------------------------------------
 #p hf 3-21g scf=tight NoSymmetry guess=read opt=(tight,modredundant)
 --------------------------------------------------------------------

 -----------------------------------
 Geometry optimization at the 2D-PES
 -----------------------------------
 Symbolic Z-matrix:
 Charge =  0 Multiplicity = 1

 SCF Done:  E(RHF) =  -226.392220094     A.U. after   13 cycles
 SCF Done:  E(RHF) =  -226.392231134     A.U. after   13 cycles
 SCF Done:  E(RHF) =  -226.392268473     A.U. after   12 cycles
 SCF Done:  E(RHF) =  -226.392268663     A.U. after    9 cycles
 SCF Done:  E(RHF) =  -226.392268685     A.U. after    8 cycles
 SCF Done:  E(RHF) =  -226.392268688     A.U. after    7 cycles
 Optimization completed.
    -- Stationary point found.

                          Input orientation:
 ---------------------------------------------------------------------
 Center     Atomic      Atomic             Coordinates (Angstroms)
 Number     Number       Type             X           Y           Z
 ---------------------------------------------------------------------
      1          6           0        0.742381    0.571865    0.011275
      2          6           0        1.441220   -0.534854   -0.051245
      3          1           0        1.171336    1.548668    0.092916
      4          1           0        2.509613   -0.488058   -0.028283
      5          1           0        0.990819   -1.496017   -0.177038
      6          8           0       -0.645087    0.702114    0.037464
      7          8           0       -1.310066   -0.592446   -0.014294
      8          1           0       -0.973163   -1.040438    0.785505
 ---------------------------------------------------------------------

 Alpha  occ. eigenvalues --  -20.54818 -20.53573 -11.25699 -11.17405  -1.49028
 Alpha  occ. eigenvalues --   -1.24644  -1.04540  -0.80834  -0.71937  -0.68902
 Alpha  occ. eigenvalues --   -0.65356  -0.57018  -0.55310  -0.53288  -0.49045
 Alpha  occ. eigenvalues --   -0.37193
 Alpha virt. eigenvalues --    0.18699   0.21823   0.27982   0.28810   0.33052
 Alpha virt. eigenvalues --    0.36730   0.49313   0.58268   0.88094   0.96317
 Alpha virt. eigenvalues --    1.00014   1.05923   1.08948   1.11123   1.24656

 Mulliken charges:
               1
     1  C    0.143769
     2  C   -0.530740
     3  H    0.268552
     4  H    0.231640
     5  H    0.231846
     6  O   -0.391422
     7  O   -0.362585
     8  H    0.408941
 Sum of Mulliken charges =   0.00000

 Dipole moment (field-independent basis, Debye):
    X=              2.2517    Y=             -0.9085    Z=              1.5767  Tot=              2.8951
 Quadrupole moment (field-independent basis, Debye-Ang):
   XX=            -24.7737   YY=            -20.7495   ZZ=            -24.3846
   XY=              2.2699   XZ=             -1.5923   YZ=             -1.5466

 Normal termination of Gaussian 09 at Fri Apr 12 18:02:46 2019.
