 Gaussian 09, Revision D.01,
 Gaussian 09:  AS64L-G09RevD.01 24-Apr-2013

 --------------------------------------------------------------------
 #p hf 3-21g scf=tight NoSymmetry guess=read opt=(tight,modredundant)
 --------------------------------------------------------------------

 -----------------------------------
 Geometry optimization at the 2D-PES
 -----------------------------------
 Symbolic Z-matrix:
 Charge =  0 Multiplicity = 1

 SCF Done:  E(RHF) =  -226.381118430     A.U. after   13 cycles
 SCF Done:  E(RHF) =  -226.381121797     A.U. after   11 cycles
 SCF Done:  E(RHF) =  -226.381122496     A.U. after    9 cycles
 SCF Done:  E(RHF) =  -226.381122533     A.U. after    8 cycles
 SCF Done:  E(RHF) =  -226.381122536     A.U. after    6 cycles
 Optimization completed.
    -- Stationary point found.

                          Input orientation:
 ---------------------------------------------------------------------
 Center     Atomic      Atomic             Coordinates (Angstroms)
 Number     Number       Type             X           Y           Z
 ---------------------------------------------------------------------
      1          6           0        0.757440    0.623616    0.045812
      2          6           0        1.388124   -0.522250   -0.002192
      3          1           0        1.244675    1.578436    0.080634
      4          1           0        2.458293   -0.560403   -0.021149
      5          1           0        0.844607   -1.444047   -0.045132
      6          8           0       -0.648832    0.679492   -0.010606
      7          8           0       -1.195469    1.088481    1.302709
      8          1           0       -0.417885    1.369237    1.819996
 ---------------------------------------------------------------------

 Alpha  occ. eigenvalues --  -20.52983 -20.51929 -11.25029 -11.19386  -1.46412
 Alpha  occ. eigenvalues --   -1.23548  -1.04687  -0.81543  -0.71308  -0.67890
 Alpha  occ. eigenvalues --   -0.60262  -0.59368  -0.56922  -0.52375  -0.44675
 Alpha  occ. eigenvalues --   -0.39358
 Alpha virt. eigenvalues --    0.13772   0.26223   0.27330   0.29741   0.31552
 Alpha virt. eigenvalues --    0.35496   0.49142   0.55508   0.87439   0.96142
 Alpha virt. eigenvalues --    0.98259   1.05917   1.09060   1.11089   1.24423

 Mulliken charges:
               1
     1  C    0.066715
     2  C   -0.444701
     3  H    0.236918
     4  H    0.233587
     5  H    0.259889
     6  O   -0.374921
     7  O   -0.375042
     8  H    0.397554
 Sum of Mulliken charges =   0.00000

 Dipole moment (field-independent basis, Debye):
    X=              3.6625    Y=              0.1550    Z=              1.1660  Tot=              3.8467
 Quadrupole moment (field-independent basis, Debye-Ang):
   XX=            -25.2615   YY=            -20.7342   ZZ=            -22.2408
   XY=              2.4318   XZ=              1.5426   YZ=              2.5493

 Normal termination of Gaussian 09 at Fri Apr 12 16:20:23 2019.
