 Gaussian 09, Revision D.01,
 Gaussian 09:  AS64L-G09RevD.01 24-Apr-2013

 --------------------------------------------------------------------
 #p hf 3-21g scf=tight NoSymmetry guess=read opt=(tight,modredundant)
 --------------------------------------------------------------------

 -----------------------------------
 Geometry optimization at the 2D-PES
 -----------------------------------
 Symbolic Z-matrix:
 Charge =  0 Multiplicity = 1

 SCF Done:  E(RHF) =  -226.383367647     A.U. after   13 cycles
 SCF Done:  E(RHF) =  -226.383376734     A.U. after   12 cycles
 SCF Done:  E(RHF) =  -226.383386892     A.U. after   11 cycles
 SCF Done:  E(RHF) =  -226.383386942     A.U. after    9 cycles
 SCF Done:  E(RHF) =  -226.383386947     A.U. after    7 cycles
 Optimization completed.
    -- Stationary point found.

                          Input orientation:
 ---------------------------------------------------------------------
 Center     Atomic      Atomic             Coordinates (Angstroms)
 Number     Number       Type             X           Y           Z
 ---------------------------------------------------------------------
      1          6           0        0.750254    0.621651    0.042667
      2          6           0        1.388502   -0.519119   -0.005246
      3          1           0        1.232665    1.578717    0.085399
      4          1           0        2.459081   -0.551356   -0.015097
      5          1           0        0.850769   -1.444147   -0.050416
      6          8           0       -0.658992    0.678035   -0.010457
      7          8           0       -1.196045    0.850469    1.353656
      8          1           0       -0.581073    1.481514    1.772446
 ---------------------------------------------------------------------

 Alpha  occ. eigenvalues --  -20.52849 -20.51959 -11.24656 -11.19080  -1.46470
 Alpha  occ. eigenvalues --   -1.23281  -1.04390  -0.81249  -0.70349  -0.68585
 Alpha  occ. eigenvalues --   -0.60832  -0.58542  -0.57704  -0.50717  -0.44905
 Alpha  occ. eigenvalues --   -0.39435
 Alpha virt. eigenvalues --    0.14017   0.26741   0.27078   0.29878   0.31833
 Alpha virt. eigenvalues --    0.35622   0.49421   0.55624   0.87617   0.96254
 Alpha virt. eigenvalues --    0.98533   1.06218   1.09410   1.10484   1.24997

 Mulliken charges:
               1
     1  C    0.076236
     2  C   -0.440159
     3  H    0.230441
     4  H    0.231634
     5  H    0.259866
     6  O   -0.379316
     7  O   -0.373992
     8  H    0.395291
 Sum of Mulliken charges =   0.00000

 Dipole moment (field-independent basis, Debye):
    X=              3.3413    Y=              0.8166    Z=              1.0057  Tot=              3.5837
 Quadrupole moment (field-independent basis, Debye-Ang):
   XX=            -24.9954   YY=            -19.1094   ZZ=            -22.9120
   XY=              1.2358   XZ=              1.1230   YZ=              3.4333

 Normal termination of Gaussian 09 at Fri Apr 12 16:33:55 2019.
