 Gaussian 09, Revision D.01,
 Gaussian 09:  AS64L-G09RevD.01 24-Apr-2013

 --------------------------------------------------------------------
 #p hf 3-21g scf=tight NoSymmetry guess=read opt=(tight,modredundant)
 --------------------------------------------------------------------

 -----------------------------------
 Geometry optimization at the 2D-PES
 -----------------------------------
 Symbolic Z-matrix:
 Charge =  0 Multiplicity = 1

 SCF Done:  E(RHF) =  -226.381384694     A.U. after   13 cycles
 SCF Done:  E(RHF) =  -226.381388680     A.U. after   12 cycles
 SCF Done:  E(RHF) =  -226.381393623     A.U. after   11 cycles
 SCF Done:  E(RHF) =  -226.381393646     A.U. after    9 cycles
 SCF Done:  E(RHF) =  -226.381393648     A.U. after    6 cycles
 Optimization completed.
    -- Stationary point found.

                          Input orientation:
 ---------------------------------------------------------------------
 Center     Atomic      Atomic             Coordinates (Angstroms)
 Number     Number       Type             X           Y           Z
 ---------------------------------------------------------------------
      1          6           0        0.754043    0.621504    0.040160
      2          6           0        1.390913   -0.520944   -0.006981
      3          1           0        1.236737    1.578203    0.079091
      4          1           0        2.461483   -0.553854   -0.018232
      5          1           0        0.852605   -1.445760   -0.053000
      6          8           0       -0.654737    0.676704   -0.008148
      7          8           0       -1.201182    0.853032    1.355825
      8          1           0       -0.454425    1.204328    1.875656
 ---------------------------------------------------------------------

 Alpha  occ. eigenvalues --  -20.52801 -20.51847 -11.24871 -11.19428  -1.46275
 Alpha  occ. eigenvalues --   -1.23352  -1.04680  -0.81412  -0.70981  -0.68149
 Alpha  occ. eigenvalues --   -0.59778  -0.59215  -0.57580  -0.51864  -0.44272
 Alpha  occ. eigenvalues --   -0.39692
 Alpha virt. eigenvalues --    0.13607   0.26729   0.27387   0.29561   0.31345
 Alpha virt. eigenvalues --    0.35704   0.49241   0.55408   0.87307   0.96231
 Alpha virt. eigenvalues --    0.98133   1.05900   1.09032   1.10946   1.24606

 Mulliken charges:
               1
     1  C    0.063307
     2  C   -0.439483
     3  H    0.236489
     4  H    0.233351
     5  H    0.260743
     6  O   -0.376240
     7  O   -0.374838
     8  H    0.396671
 Sum of Mulliken charges =   0.00000

 Dipole moment (field-independent basis, Debye):
    X=              3.6293    Y=              0.2555    Z=              1.1787  Tot=              3.8244
 Quadrupole moment (field-independent basis, Debye-Ang):
   XX=            -25.2229   YY=            -20.6783   ZZ=            -22.0935
   XY=              1.8994   XZ=              1.5177   YZ=              2.6219

 Normal termination of Gaussian 09 at Fri Apr 12 16:34:22 2019.
