 Gaussian 09, Revision D.01,
 Gaussian 09:  AS64L-G09RevD.01 24-Apr-2013

 --------------------------------------------------------------------
 #p hf 3-21g scf=tight NoSymmetry guess=read opt=(tight,modredundant)
 --------------------------------------------------------------------

 -----------------------------------
 Geometry optimization at the 2D-PES
 -----------------------------------
 Symbolic Z-matrix:
 Charge =  0 Multiplicity = 1

 SCF Done:  E(RHF) =  -226.391634951     A.U. after   13 cycles
 SCF Done:  E(RHF) =  -226.391641481     A.U. after   11 cycles
 SCF Done:  E(RHF) =  -226.391645156     A.U. after   10 cycles
 SCF Done:  E(RHF) =  -226.391645210     A.U. after    8 cycles
 SCF Done:  E(RHF) =  -226.391645215     A.U. after    6 cycles
 Optimization completed.
    -- Stationary point found.

                          Input orientation:
 ---------------------------------------------------------------------
 Center     Atomic      Atomic             Coordinates (Angstroms)
 Number     Number       Type             X           Y           Z
 ---------------------------------------------------------------------
      1          6           0        0.730968    0.618694    0.042146
      2          6           0        1.379083   -0.515536   -0.008190
      3          1           0        1.201603    1.577459    0.114815
      4          1           0        2.449750   -0.535717    0.008644
      5          1           0        0.855110   -1.447776   -0.064013
      6          8           0       -0.677631    0.675051   -0.011839
      7          8           0       -1.177513    0.354518    1.338503
      8          1           0       -1.791771    1.097340    1.470144
 ---------------------------------------------------------------------

 Alpha  occ. eigenvalues --  -20.52202 -20.51578 -11.23545 -11.17600  -1.46037
 Alpha  occ. eigenvalues --   -1.22822  -1.03113  -0.79210  -0.70146  -0.66275
 Alpha  occ. eigenvalues --   -0.64370  -0.58605  -0.55291  -0.49361  -0.44552
 Alpha  occ. eigenvalues --   -0.38367
 Alpha virt. eigenvalues --    0.15496   0.26903   0.29314   0.30835   0.32191
 Alpha virt. eigenvalues --    0.36634   0.49598   0.56784   0.88704   0.97610
 Alpha virt. eigenvalues --    0.98639   1.06981   1.10370   1.12897   1.23225

 Mulliken charges:
               1
     1  C    0.129001
     2  C   -0.446853
     3  H    0.231386
     4  H    0.225781
     5  H    0.252055
     6  O   -0.414055
     7  O   -0.387916
     8  H    0.410601
 Sum of Mulliken charges =   0.00000

 Dipole moment (field-independent basis, Debye):
    X=              0.7709    Y=              1.2055    Z=              0.5934  Tot=              1.5491
 Quadrupole moment (field-independent basis, Debye-Ang):
   XX=            -18.9445   YY=            -19.8353   ZZ=            -24.7899
   XY=             -2.3990   XZ=             -2.4027   YZ=              2.9067

 Normal termination of Gaussian 09 at Fri Apr 12 16:46:11 2019.
