 Gaussian 09, Revision D.01,
 Gaussian 09:  AS64L-G09RevD.01 24-Apr-2013

 --------------------------------------------------------------------
 #p hf 3-21g scf=tight NoSymmetry guess=read opt=(tight,modredundant)
 --------------------------------------------------------------------

 -----------------------------------
 Geometry optimization at the 2D-PES
 -----------------------------------
 Symbolic Z-matrix:
 Charge =  0 Multiplicity = 1

 SCF Done:  E(RHF) =  -226.396307461     A.U. after   13 cycles
 SCF Done:  E(RHF) =  -226.396311442     A.U. after   11 cycles
 SCF Done:  E(RHF) =  -226.396314269     A.U. after   10 cycles
 SCF Done:  E(RHF) =  -226.396314324     A.U. after    8 cycles
 SCF Done:  E(RHF) =  -226.396314325     A.U. after    6 cycles
 Optimization completed.
    -- Stationary point found.

                          Input orientation:
 ---------------------------------------------------------------------
 Center     Atomic      Atomic             Coordinates (Angstroms)
 Number     Number       Type             X           Y           Z
 ---------------------------------------------------------------------
      1          6           0        0.727770    0.635299    0.054952
      2          6           0        1.367696   -0.505318    0.001221
      3          1           0        1.186351    1.598007    0.117476
      4          1           0        2.437605   -0.525745   -0.015453
      5          1           0        0.841917   -1.437200   -0.038344
      6          8           0       -0.669354    0.675458   -0.016780
      7          8           0       -1.082530    1.850939    0.760494
      8          1           0       -1.894290    2.082214    0.279241
 ---------------------------------------------------------------------

 Alpha  occ. eigenvalues --  -20.53428 -20.52513 -11.24126 -11.16560  -1.47495
 Alpha  occ. eigenvalues --   -1.23922  -1.02672  -0.79651  -0.70035  -0.68071
 Alpha  occ. eigenvalues --   -0.64790  -0.57099  -0.55467  -0.51748  -0.47528
 Alpha  occ. eigenvalues --   -0.36080
 Alpha virt. eigenvalues --    0.18079   0.24414   0.28110   0.32060   0.33338
 Alpha virt. eigenvalues --    0.36091   0.49816   0.57614   0.90295   0.97290
 Alpha virt. eigenvalues --    1.00392   1.06786   1.10962   1.12600   1.22814

 Mulliken charges:
               1
     1  C    0.167118
     2  C   -0.499845
     3  H    0.254577
     4  H    0.225877
     5  H    0.240079
     6  O   -0.418542
     7  O   -0.389033
     8  H    0.419769
 Sum of Mulliken charges =   0.00000

 Dipole moment (field-independent basis, Debye):
    X=              0.0468    Y=              0.7976    Z=             -0.8255  Tot=              1.1489
 Quadrupole moment (field-independent basis, Debye-Ang):
   XX=            -17.7306   YY=            -19.6927   ZZ=            -26.8313
   XY=             -3.0916   XZ=              0.6257   YZ=             -1.4614

 Normal termination of Gaussian 09 at Fri Apr 12 15:58:54 2019.
