 Gaussian 09, Revision D.01,
 Gaussian 09:  AS64L-G09RevD.01 24-Apr-2013

 --------------------------------------------------------------------
 #p hf 3-21g scf=tight NoSymmetry guess=read opt=(tight,modredundant)
 --------------------------------------------------------------------

 -----------------------------------
 Geometry optimization at the 2D-PES
 -----------------------------------
 Symbolic Z-matrix:
 Charge =  0 Multiplicity = 1

 SCF Done:  E(RHF) =  -226.397795836     A.U. after   13 cycles
 SCF Done:  E(RHF) =  -226.397802285     A.U. after   11 cycles
 SCF Done:  E(RHF) =  -226.397811051     A.U. after   10 cycles
 SCF Done:  E(RHF) =  -226.397811149     A.U. after    9 cycles
 SCF Done:  E(RHF) =  -226.397811160     A.U. after    8 cycles
 SCF Done:  E(RHF) =  -226.397811160     A.U. after    6 cycles
 Optimization completed.
    -- Stationary point found.

                          Input orientation:
 ---------------------------------------------------------------------
 Center     Atomic      Atomic             Coordinates (Angstroms)
 Number     Number       Type             X           Y           Z
 ---------------------------------------------------------------------
      1          6           0        0.738860    0.571491    0.029538
      2          6           0        1.430365   -0.535993   -0.052160
      3          1           0        1.167437    1.550336    0.093370
      4          1           0        2.499669   -0.494843   -0.053290
      5          1           0        0.957062   -1.489282   -0.134779
      6          8           0       -0.651366    0.707059    0.048933
      7          8           0       -1.284805   -0.602989   -0.037274
      8          1           0       -1.650894   -0.684705    0.860503
 ---------------------------------------------------------------------

 Alpha  occ. eigenvalues --  -20.54217 -20.53137 -11.24523 -11.16121  -1.48405
 Alpha  occ. eigenvalues --   -1.24182  -1.03229  -0.79664  -0.70710  -0.68760
 Alpha  occ. eigenvalues --   -0.64659  -0.58053  -0.54276  -0.51551  -0.48815
 Alpha  occ. eigenvalues --   -0.36154
 Alpha virt. eigenvalues --    0.19864   0.22494   0.28733   0.29846   0.33673
 Alpha virt. eigenvalues --    0.37247   0.49660   0.58830   0.88897   0.96679
 Alpha virt. eigenvalues --    1.01676   1.07170   1.10342   1.12426   1.22506

 Mulliken charges:
               1
     1  C    0.146000
     2  C   -0.511396
     3  H    0.259813
     4  H    0.221092
     5  H    0.249210
     6  O   -0.407508
     7  O   -0.374505
     8  H    0.417294
 Sum of Mulliken charges =   0.00000

 Dipole moment (field-independent basis, Debye):
    X=              0.7785    Y=             -0.3475    Z=              1.8784  Tot=              2.0628
 Quadrupole moment (field-independent basis, Debye-Ang):
   XX=            -20.9357   YY=            -22.1390   ZZ=            -24.0170
   XY=              2.5191   XZ=             -3.2937   YZ=             -1.1471

 Normal termination of Gaussian 09 at Fri Apr 12 18:01:17 2019.
