 Gaussian 09, Revision D.01,
 Gaussian 09:  AS64L-G09RevD.01 24-Apr-2013

 --------------------------------------------------------------------
 #p hf 3-21g scf=tight NoSymmetry guess=read opt=(tight,modredundant)
 --------------------------------------------------------------------

 -----------------------------------
 Geometry optimization at the 2D-PES
 -----------------------------------
 Symbolic Z-matrix:
 Charge =  0 Multiplicity = 1

 SCF Done:  E(RHF) =  -226.393494327     A.U. after   13 cycles
 SCF Done:  E(RHF) =  -226.393494991     A.U. after    9 cycles
 SCF Done:  E(RHF) =  -226.393495042     A.U. after    8 cycles
 SCF Done:  E(RHF) =  -226.393495063     A.U. after    7 cycles
 SCF Done:  E(RHF) =  -226.393495064     A.U. after    6 cycles
 Optimization completed.
    -- Stationary point found.

                          Input orientation:
 ---------------------------------------------------------------------
 Center     Atomic      Atomic             Coordinates (Angstroms)
 Number     Number       Type             X           Y           Z
 ---------------------------------------------------------------------
      1          6           0        0.724300    0.627501    0.041843
      2          6           0        1.369309   -0.509402    0.000858
      3          1           0        1.189885    1.586214    0.130396
      4          1           0        2.439871   -0.533253    0.013484
      5          1           0        0.841819   -1.439382   -0.058650
      6          8           0       -0.680484    0.665838   -0.027540
      7          8           0       -1.142858    0.832427    1.367264
      8          1           0       -2.082806    1.012225    1.194226
 ---------------------------------------------------------------------

 Alpha  occ. eigenvalues --  -20.52202 -20.51417 -11.23547 -11.17603  -1.45918
 Alpha  occ. eigenvalues --   -1.22928  -1.02990  -0.79095  -0.69206  -0.67914
 Alpha  occ. eigenvalues --   -0.64191  -0.57292  -0.55234  -0.51213  -0.43713
 Alpha  occ. eigenvalues --   -0.38287
 Alpha virt. eigenvalues --    0.15675   0.27812   0.29061   0.30926   0.32078
 Alpha virt. eigenvalues --    0.36452   0.49462   0.56962   0.89195   0.97540
 Alpha virt. eigenvalues --    0.99324   1.07183   1.10503   1.12324   1.23717

 Mulliken charges:
               1
     1  C    0.143563
     2  C   -0.452614
     3  H    0.235922
     4  H    0.226781
     5  H    0.246353
     6  O   -0.420313
     7  O   -0.394097
     8  H    0.414405
 Sum of Mulliken charges =   0.00000

 Dipole moment (field-independent basis, Debye):
    X=              0.0736    Y=              0.1569    Z=             -0.0657  Tot=              0.1853
 Quadrupole moment (field-independent basis, Debye-Ang):
   XX=            -16.1712   YY=            -21.4336   ZZ=            -26.5979
   XY=             -1.4574   XZ=             -2.0897   YZ=              0.5774

 Normal termination of Gaussian 09 at Fri Apr 12 16:29:17 2019.
