 Gaussian 09, Revision D.01,
 Gaussian 09:  AS64L-G09RevD.01 24-Apr-2013

 --------------------------------------------------------------------
 #p hf 3-21g scf=tight NoSymmetry guess=read opt=(tight,modredundant)
 --------------------------------------------------------------------

 -----------------------------------
 Geometry optimization at the 2D-PES
 -----------------------------------
 Symbolic Z-matrix:
 Charge =  0 Multiplicity = 1

 SCF Done:  E(RHF) =  -226.396083068     A.U. after   12 cycles
 SCF Done:  E(RHF) =  -226.396089694     A.U. after   11 cycles
 SCF Done:  E(RHF) =  -226.396095662     A.U. after   10 cycles
 SCF Done:  E(RHF) =  -226.396095736     A.U. after    9 cycles
 SCF Done:  E(RHF) =  -226.396095748     A.U. after    8 cycles
 SCF Done:  E(RHF) =  -226.396095749     A.U. after    6 cycles
 Optimization completed.
    -- Stationary point found.

                          Input orientation:
 ---------------------------------------------------------------------
 Center     Atomic      Atomic             Coordinates (Angstroms)
 Number     Number       Type             X           Y           Z
 ---------------------------------------------------------------------
      1          6           0        0.740714    0.575092    0.053129
      2          6           0        1.424548   -0.536078   -0.041335
      3          1           0        1.174780    1.553260    0.082955
      4          1           0        2.494140   -0.503846   -0.059511
      5          1           0        0.941473   -1.487731   -0.087782
      6          8           0       -0.653987    0.706582    0.052746
      7          8           0       -1.276583   -0.565551    0.402891
      8          1           0       -1.482690   -0.416717    1.342468
 ---------------------------------------------------------------------

 Alpha  occ. eigenvalues --  -20.53993 -20.52988 -11.24458 -11.16435  -1.48172
 Alpha  occ. eigenvalues --   -1.23940  -1.03345  -0.79856  -0.70485  -0.68506
 Alpha  occ. eigenvalues --   -0.63989  -0.58965  -0.54890  -0.50313  -0.48706
 Alpha  occ. eigenvalues --   -0.36501
 Alpha virt. eigenvalues --    0.18642   0.23480   0.28737   0.29719   0.33424
 Alpha virt. eigenvalues --    0.37179   0.49648   0.58459   0.88681   0.96583
 Alpha virt. eigenvalues --    1.01231   1.06966   1.10226   1.12089   1.22906

 Mulliken charges:
               1
     1  C    0.132768
     2  C   -0.502152
     3  H    0.257133
     4  H    0.222038
     5  H    0.253905
     6  O   -0.403058
     7  O   -0.375142
     8  H    0.414508
 Sum of Mulliken charges =   0.00000

 Dipole moment (field-independent basis, Debye):
    X=              1.2002    Y=              0.0811    Z=              2.0711  Tot=              2.3951
 Quadrupole moment (field-independent basis, Debye-Ang):
   XX=            -22.0136   YY=            -22.6903   ZZ=            -21.9911
   XY=              1.3697   XZ=             -3.3638   YZ=             -0.5195

 Normal termination of Gaussian 09 at Fri Apr 12 17:39:36 2019.
