 Gaussian 09, Revision D.01,
 Gaussian 09:  AS64L-G09RevD.01 24-Apr-2013

 --------------------------------------------------------------------
 #p hf 3-21g scf=tight NoSymmetry guess=read opt=(tight,modredundant)
 --------------------------------------------------------------------

 -----------------------------------
 Geometry optimization at the 2D-PES
 -----------------------------------
 Symbolic Z-matrix:
 Charge =  0 Multiplicity = 1

 SCF Done:  E(RHF) =  -226.390365747     A.U. after   12 cycles
 SCF Done:  E(RHF) =  -226.390373806     A.U. after   11 cycles
 SCF Done:  E(RHF) =  -226.390379052     A.U. after   10 cycles
 SCF Done:  E(RHF) =  -226.390379108     A.U. after    9 cycles
 SCF Done:  E(RHF) =  -226.390379113     A.U. after    7 cycles
 SCF Done:  E(RHF) =  -226.390379114     A.U. after    6 cycles
 Optimization completed.
    -- Stationary point found.

                          Input orientation:
 ---------------------------------------------------------------------
 Center     Atomic      Atomic             Coordinates (Angstroms)
 Number     Number       Type             X           Y           Z
 ---------------------------------------------------------------------
      1          6           0        0.730580    0.614416    0.044504
      2          6           0        1.384963   -0.517156   -0.009338
      3          1           0        1.198982    1.573031    0.115962
      4          1           0        2.455551   -0.530234    0.005023
      5          1           0        0.876880   -1.458359   -0.076828
      6          8           0       -0.679434    0.675763   -0.004006
      7          8           0       -1.190733    0.357483    1.339522
      8          1           0       -1.588408   -0.514207    1.172933
 ---------------------------------------------------------------------

 Alpha  occ. eigenvalues --  -20.52527 -20.51940 -11.24116 -11.18218  -1.46503
 Alpha  occ. eigenvalues --   -1.23051  -1.03792  -0.79510  -0.70872  -0.67010
 Alpha  occ. eigenvalues --   -0.64650  -0.58542  -0.55695  -0.48478  -0.46415
 Alpha  occ. eigenvalues --   -0.38674
 Alpha virt. eigenvalues --    0.15067   0.25535   0.29026   0.30619   0.31768
 Alpha virt. eigenvalues --    0.36512   0.49572   0.56350   0.88397   0.96960
 Alpha virt. eigenvalues --    0.97712   1.06435   1.09448   1.12251   1.24373

 Mulliken charges:
               1
     1  C    0.137986
     2  C   -0.460904
     3  H    0.244172
     4  H    0.232038
     5  H    0.229514
     6  O   -0.410005
     7  O   -0.380800
     8  H    0.407998
 Sum of Mulliken charges =   0.00000

 Dipole moment (field-independent basis, Debye):
    X=              1.2089    Y=             -2.0280    Z=             -0.0411  Tot=              2.3613
 Quadrupole moment (field-independent basis, Debye-Ang):
   XX=            -20.4943   YY=            -21.7843   ZZ=            -26.5096
   XY=              4.0769   XZ=             -0.6476   YZ=             -1.9192

 Normal termination of Gaussian 09 at Fri Apr 12 16:43:28 2019.
