 Gaussian 09, Revision D.01,
 Gaussian 09:  AS64L-G09RevD.01 24-Apr-2013

 --------------------------------------------------------------------
 #p hf 3-21g scf=tight NoSymmetry guess=read opt=(tight,modredundant)
 --------------------------------------------------------------------

 -----------------------------------
 Geometry optimization at the 2D-PES
 -----------------------------------
 Symbolic Z-matrix:
 Charge =  0 Multiplicity = 1

 SCF Done:  E(RHF) =  -226.398424491     A.U. after   13 cycles
 SCF Done:  E(RHF) =  -226.398426712     A.U. after   11 cycles
 SCF Done:  E(RHF) =  -226.398431492     A.U. after   11 cycles
 SCF Done:  E(RHF) =  -226.398431524     A.U. after    8 cycles
 SCF Done:  E(RHF) =  -226.398431528     A.U. after    7 cycles
 Optimization completed.
    -- Stationary point found.

                          Input orientation:
 ---------------------------------------------------------------------
 Center     Atomic      Atomic             Coordinates (Angstroms)
 Number     Number       Type             X           Y           Z
 ---------------------------------------------------------------------
      1          6           0        0.734733    0.571294    0.034082
      2          6           0        1.424869   -0.536571   -0.053622
      3          1           0        1.165520    1.549471    0.095505
      4          1           0        2.494257   -0.494569   -0.060463
      5          1           0        0.951253   -1.490527   -0.123883
      6          8           0       -0.652076    0.710107    0.052148
      7          8           0       -1.275941   -0.607589   -0.044314
      8          1           0       -2.004621   -0.485534    0.586809
 ---------------------------------------------------------------------

 Alpha  occ. eigenvalues --  -20.53986 -20.52844 -11.24253 -11.15715  -1.48052
 Alpha  occ. eigenvalues --   -1.24127  -1.02805  -0.79233  -0.71540  -0.66707
 Alpha  occ. eigenvalues --   -0.64381  -0.59827  -0.53749  -0.50940  -0.48591
 Alpha  occ. eigenvalues --   -0.35618
 Alpha virt. eigenvalues --    0.20293   0.22712   0.28699   0.30338   0.34168
 Alpha virt. eigenvalues --    0.37410   0.50011   0.59189   0.89276   0.97196
 Alpha virt. eigenvalues --    1.01716   1.07560   1.10695   1.13090   1.22443

 Mulliken charges:
               1
     1  C    0.154410
     2  C   -0.508882
     3  H    0.257921
     4  H    0.218463
     5  H    0.253835
     6  O   -0.417686
     7  O   -0.380715
     8  H    0.422655
 Sum of Mulliken charges =   0.00000

 Dipole moment (field-independent basis, Debye):
    X=             -0.0096    Y=              0.0469    Z=              1.3414  Tot=              1.3423
 Quadrupole moment (field-independent basis, Debye-Ang):
   XX=            -17.9164   YY=            -22.6566   ZZ=            -24.9765
   XY=              2.1760   XZ=             -2.8173   YZ=             -0.4705

 Normal termination of Gaussian 09 at Fri Apr 12 18:00:20 2019.
