 Gaussian 09, Revision D.01,
 Gaussian 09:  AS64L-G09RevD.01 24-Apr-2013

 --------------------------------------------------------------------
 #p hf 3-21g scf=tight NoSymmetry guess=read opt=(tight,modredundant)
 --------------------------------------------------------------------

 -----------------------------------
 Geometry optimization at the 2D-PES
 -----------------------------------
 Symbolic Z-matrix:
 Charge =  0 Multiplicity = 1

 SCF Done:  E(RHF) =  -226.381151364     A.U. after   13 cycles
 SCF Done:  E(RHF) =  -226.381165778     A.U. after   12 cycles
 SCF Done:  E(RHF) =  -226.381166667     A.U. after   10 cycles
 SCF Done:  E(RHF) =  -226.381166899     A.U. after    8 cycles
 SCF Done:  E(RHF) =  -226.381166909     A.U. after    7 cycles
 SCF Done:  E(RHF) =  -226.381166910     A.U. after    6 cycles
 Optimization completed.
    -- Stationary point found.

                          Input orientation:
 ---------------------------------------------------------------------
 Center     Atomic      Atomic             Coordinates (Angstroms)
 Number     Number       Type             X           Y           Z
 ---------------------------------------------------------------------
      1          6           0        0.739679    0.597363    0.021748
      2          6           0        1.425634   -0.520765    0.008962
      3          1           0        1.189792    1.565698    0.085533
      4          1           0        2.494847   -0.496019    0.041134
      5          1           0        0.960589   -1.487703   -0.002507
      6          8           0       -0.659834    0.686318   -0.006225
      7          8           0       -1.264140   -0.120988   -1.078049
      8          1           0       -0.577745   -0.772424   -1.307870
 ---------------------------------------------------------------------

 Alpha  occ. eigenvalues --  -20.53537 -20.52669 -11.26087 -11.19172  -1.47357
 Alpha  occ. eigenvalues --   -1.24119  -1.05483  -0.81164  -0.73050  -0.67734
 Alpha  occ. eigenvalues --   -0.62648  -0.59533  -0.55393  -0.53383  -0.46898
 Alpha  occ. eigenvalues --   -0.38397
 Alpha virt. eigenvalues --    0.14748   0.23191   0.27538   0.28707   0.32742
 Alpha virt. eigenvalues --    0.36643   0.50062   0.56438   0.87465   0.95464
 Alpha virt. eigenvalues --    1.00379   1.04954   1.08056   1.11101   1.23437

 Mulliken charges:
               1
     1  C    0.126676
     2  C   -0.513171
     3  H    0.263258
     4  H    0.242007
     5  H    0.229951
     6  O   -0.389617
     7  O   -0.365044
     8  H    0.405939
 Sum of Mulliken charges =   0.00000

 Dipole moment (field-independent basis, Debye):
    X=              3.2837    Y=             -1.3745    Z=             -0.5527  Tot=              3.6024
 Quadrupole moment (field-independent basis, Debye-Ang):
   XX=            -25.4222   YY=            -20.9030   ZZ=            -24.5085
   XY=              2.0794   XZ=             -0.9465   YZ=              1.9562

 Normal termination of Gaussian 09 at Fri Apr 12 14:52:06 2019.
