 Gaussian 09, Revision D.01,
 Gaussian 09:  AS64L-G09RevD.01 24-Apr-2013

 --------------------------------------------------------------------
 #p hf 3-21g scf=tight NoSymmetry guess=read opt=(tight,modredundant)
 --------------------------------------------------------------------

 -----------------------------------
 Geometry optimization at the 2D-PES
 -----------------------------------
 Symbolic Z-matrix:
 Charge =  0 Multiplicity = 1

 SCF Done:  E(RHF) =  -226.392129288     A.U. after   13 cycles
 SCF Done:  E(RHF) =  -226.392131456     A.U. after   11 cycles
 SCF Done:  E(RHF) =  -226.392132008     A.U. after   10 cycles
 SCF Done:  E(RHF) =  -226.392132053     A.U. after    8 cycles
 SCF Done:  E(RHF) =  -226.392132055     A.U. after    6 cycles
 Optimization completed.
    -- Stationary point found.

                          Input orientation:
 ---------------------------------------------------------------------
 Center     Atomic      Atomic             Coordinates (Angstroms)
 Number     Number       Type             X           Y           Z
 ---------------------------------------------------------------------
      1          6           0        0.727201    0.618904    0.044275
      2          6           0        1.376316   -0.515095   -0.008026
      3          1           0        1.196165    1.577521    0.118006
      4          1           0        2.446936   -0.534053    0.008176
      5          1           0        0.855451   -1.449221   -0.062164
      6          8           0       -0.678772    0.676727   -0.013006
      7          8           0       -1.171430    0.349970    1.342599
      8          1           0       -2.117823    0.258643    1.137530
 ---------------------------------------------------------------------

 Alpha  occ. eigenvalues --  -20.52040 -20.51435 -11.23506 -11.17605  -1.45775
 Alpha  occ. eigenvalues --   -1.22831  -1.03066  -0.78933  -0.69375  -0.67815
 Alpha  occ. eigenvalues --   -0.63947  -0.57668  -0.55007  -0.51087  -0.43761
 Alpha  occ. eigenvalues --   -0.38135
 Alpha virt. eigenvalues --    0.15402   0.27719   0.29380   0.30473   0.31955
 Alpha virt. eigenvalues --    0.36839   0.49747   0.56889   0.88968   0.97565
 Alpha virt. eigenvalues --    0.99265   1.06977   1.10300   1.12379   1.23663

 Mulliken charges:
               1
     1  C    0.138674
     2  C   -0.448079
     3  H    0.237852
     4  H    0.226935
     5  H    0.244239
     6  O   -0.422802
     7  O   -0.390846
     8  H    0.414027
 Sum of Mulliken charges =   0.00000

 Dipole moment (field-independent basis, Debye):
    X=              0.0693    Y=             -0.5199    Z=             -0.1125  Tot=              0.5364
 Quadrupole moment (field-independent basis, Debye-Ang):
   XX=            -15.9491   YY=            -22.3902   ZZ=            -26.6978
   XY=              0.9357   XZ=             -1.8690   YZ=              0.0021

 Normal termination of Gaussian 09 at Fri Apr 12 16:44:50 2019.
