 Gaussian 09, Revision D.01,
 Gaussian 09:  AS64L-G09RevD.01 24-Apr-2013

 --------------------------------------------------------------------
 #p hf 3-21g scf=tight NoSymmetry guess=read opt=(tight,modredundant)
 --------------------------------------------------------------------

 -----------------------------------
 Geometry optimization at the 2D-PES
 -----------------------------------
 Symbolic Z-matrix:
 Charge =  0 Multiplicity = 1

 SCF Done:  E(RHF) =  -226.395223013     A.U. after   13 cycles
 SCF Done:  E(RHF) =  -226.395224435     A.U. after   11 cycles
 SCF Done:  E(RHF) =  -226.395225333     A.U. after   10 cycles
 SCF Done:  E(RHF) =  -226.395225349     A.U. after    7 cycles
 SCF Done:  E(RHF) =  -226.395225350     A.U. after    6 cycles
 Optimization completed.
    -- Stationary point found.

                          Input orientation:
 ---------------------------------------------------------------------
 Center     Atomic      Atomic             Coordinates (Angstroms)
 Number     Number       Type             X           Y           Z
 ---------------------------------------------------------------------
      1          6           0        0.725780    0.632646    0.052742
      2          6           0        1.367855   -0.506667    0.005757
      3          1           0        1.186752    1.593959    0.125607
      4          1           0        2.438087   -0.529250   -0.006041
      5          1           0        0.841147   -1.437706   -0.044338
      6          8           0       -0.674074    0.669752   -0.025585
      7          8           0       -1.109831    1.510522    1.104368
      8          1           0       -1.974390    1.102215    1.278995
 ---------------------------------------------------------------------

 Alpha  occ. eigenvalues --  -20.52944 -20.51956 -11.24013 -11.17193  -1.46804
 Alpha  occ. eigenvalues --   -1.23516  -1.02946  -0.79534  -0.70328  -0.67267
 Alpha  occ. eigenvalues --   -0.62910  -0.60192  -0.55719  -0.49938  -0.45950
 Alpha  occ. eigenvalues --   -0.37320
 Alpha virt. eigenvalues --    0.16990   0.25832   0.28342   0.31545   0.32736
 Alpha virt. eigenvalues --    0.36046   0.49599   0.57126   0.89688   0.97321
 Alpha virt. eigenvalues --    0.99470   1.07206   1.10542   1.12600   1.22957

 Mulliken charges:
               1
     1  C    0.161026
     2  C   -0.483787
     3  H    0.250065
     4  H    0.227224
     5  H    0.239004
     6  O   -0.417901
     7  O   -0.394398
     8  H    0.418767
 Sum of Mulliken charges =   0.00000

 Dipole moment (field-independent basis, Debye):
    X=              0.0613    Y=             -0.7863    Z=              0.6451  Tot=              1.0189
 Quadrupole moment (field-independent basis, Debye-Ang):
   XX=            -17.0638   YY=            -24.2759   ZZ=            -24.7475
   XY=              0.2505   XZ=             -3.1043   YZ=             -0.1658

 Normal termination of Gaussian 09 at Fri Apr 12 16:12:42 2019.
