 Gaussian 09, Revision D.01,
 Gaussian 09:  AS64L-G09RevD.01 24-Apr-2013

 --------------------------------------------------------------------
 #p hf 3-21g scf=tight NoSymmetry guess=read opt=(tight,modredundant)
 --------------------------------------------------------------------

 -----------------------------------
 Geometry optimization at the 2D-PES
 -----------------------------------
 Symbolic Z-matrix:
 Charge =  0 Multiplicity = 1

 SCF Done:  E(RHF) =  -226.392300447     A.U. after   13 cycles
 SCF Done:  E(RHF) =  -226.392301042     A.U. after    9 cycles
 SCF Done:  E(RHF) =  -226.392301160     A.U. after    9 cycles
 SCF Done:  E(RHF) =  -226.392301178     A.U. after    7 cycles
 Optimization completed.
    -- Stationary point found.

                          Input orientation:
 ---------------------------------------------------------------------
 Center     Atomic      Atomic             Coordinates (Angstroms)
 Number     Number       Type             X           Y           Z
 ---------------------------------------------------------------------
      1          6           0        0.726889    0.619667    0.042113
      2          6           0        1.375288   -0.514774   -0.007449
      3          1           0        1.195753    1.578289    0.118929
      4          1           0        2.445862   -0.534635    0.012311
      5          1           0        0.852646   -1.447720   -0.063589
      6          8           0       -0.679137    0.675487   -0.016181
      7          8           0       -1.167867    0.350580    1.341316
      8          1           0       -2.105542    0.580190    1.221374
 ---------------------------------------------------------------------

 Alpha  occ. eigenvalues --  -20.52029 -20.51416 -11.23461 -11.17543  -1.45759
 Alpha  occ. eigenvalues --   -1.22806  -1.03006  -0.78918  -0.69820  -0.66923
 Alpha  occ. eigenvalues --   -0.64180  -0.57875  -0.54876  -0.51040  -0.43607
 Alpha  occ. eigenvalues --   -0.38178
 Alpha virt. eigenvalues --    0.15489   0.27661   0.29383   0.30587   0.32116
 Alpha virt. eigenvalues --    0.36810   0.49734   0.56932   0.88994   0.97633
 Alpha virt. eigenvalues --    0.99177   1.07135   1.10474   1.12357   1.23671

 Mulliken charges:
               1
     1  C    0.136856
     2  C   -0.447197
     3  H    0.235807
     4  H    0.226212
     5  H    0.247944
     6  O   -0.422001
     7  O   -0.391377
     8  H    0.413757
 Sum of Mulliken charges =   0.00000

 Dipole moment (field-independent basis, Debye):
    X=              0.0899    Y=              0.1498    Z=              0.0685  Tot=              0.1876
 Quadrupole moment (field-independent basis, Debye-Ang):
   XX=            -16.0687   YY=            -21.7949   ZZ=            -26.2629
   XY=             -0.6570   XZ=             -2.2541   YZ=              0.9125

 Normal termination of Gaussian 09 at Fri Apr 12 16:45:23 2019.
