 Gaussian 09, Revision D.01,
 Gaussian 09:  AS64L-G09RevD.01 24-Apr-2013

 --------------------------------------------------------------------
 #p hf 3-21g scf=tight NoSymmetry guess=read opt=(tight,modredundant)
 --------------------------------------------------------------------

 -----------------------------------
 Geometry optimization at the 2D-PES
 -----------------------------------
 Symbolic Z-matrix:
 Charge =  0 Multiplicity = 1

 SCF Done:  E(RHF) =  -226.389809134     A.U. after   12 cycles
 SCF Done:  E(RHF) =  -226.389817264     A.U. after   11 cycles
 SCF Done:  E(RHF) =  -226.389823423     A.U. after   10 cycles
 SCF Done:  E(RHF) =  -226.389823473     A.U. after    9 cycles
 SCF Done:  E(RHF) =  -226.389823478     A.U. after    7 cycles
 SCF Done:  E(RHF) =  -226.389823478     A.U. after    6 cycles
 Optimization completed.
    -- Stationary point found.

                          Input orientation:
 ---------------------------------------------------------------------
 Center     Atomic      Atomic             Coordinates (Angstroms)
 Number     Number       Type             X           Y           Z
 ---------------------------------------------------------------------
      1          6           0        0.731128    0.614372    0.042678
      2          6           0        1.385970   -0.517325   -0.009156
      3          1           0        1.199200    1.572892    0.116795
      4          1           0        2.456481   -0.530165    0.008185
      5          1           0        0.879603   -1.459219   -0.083482
      6          8           0       -0.679707    0.674394   -0.004890
      7          8           0       -1.192457    0.359320    1.337743
      8          1           0       -1.442553   -0.573702    1.222791
 ---------------------------------------------------------------------

 Alpha  occ. eigenvalues --  -20.52643 -20.52047 -11.24292 -11.18406  -1.46655
 Alpha  occ. eigenvalues --   -1.23100  -1.03997  -0.79689  -0.71323  -0.66478
 Alpha  occ. eigenvalues --   -0.64929  -0.58763  -0.55803  -0.47937  -0.47097
 Alpha  occ. eigenvalues --   -0.38868
 Alpha virt. eigenvalues --    0.14975   0.24983   0.28853   0.30508   0.32003
 Alpha virt. eigenvalues --    0.36416   0.49557   0.56193   0.88252   0.96724
 Alpha virt. eigenvalues --    0.97583   1.06284   1.09265   1.11883   1.24913

 Mulliken charges:
               1
     1  C    0.135515
     2  C   -0.464212
     3  H    0.245552
     4  H    0.233379
     5  H    0.228315
     6  O   -0.405978
     7  O   -0.378411
     8  H    0.405840
 Sum of Mulliken charges =   0.00000

 Dipole moment (field-independent basis, Debye):
    X=              1.5173    Y=             -2.1185    Z=              0.0567  Tot=              2.6064
 Quadrupole moment (field-independent basis, Debye-Ang):
   XX=            -21.4729   YY=            -21.6139   ZZ=            -26.2492
   XY=              4.0680   XZ=             -0.4385   YZ=             -2.1221

 Normal termination of Gaussian 09 at Fri Apr 12 16:43:15 2019.
