 Gaussian 09, Revision D.01,
 Gaussian 09:  AS64L-G09RevD.01 24-Apr-2013

 --------------------------------------------------------------------
 #p hf 3-21g scf=tight NoSymmetry guess=read opt=(tight,modredundant)
 --------------------------------------------------------------------

 -----------------------------------
 Geometry optimization at the 2D-PES
 -----------------------------------
 Symbolic Z-matrix:
 Charge =  0 Multiplicity = 1

 SCF Done:  E(RHF) =  -226.388142623     A.U. after   13 cycles
 SCF Done:  E(RHF) =  -226.388156982     A.U. after   13 cycles
 SCF Done:  E(RHF) =  -226.388168456     A.U. after   10 cycles
 SCF Done:  E(RHF) =  -226.388168602     A.U. after    9 cycles
 SCF Done:  E(RHF) =  -226.388168617     A.U. after    8 cycles
 SCF Done:  E(RHF) =  -226.388168619     A.U. after    8 cycles
 Optimization completed.
    -- Stationary point found.

                          Input orientation:
 ---------------------------------------------------------------------
 Center     Atomic      Atomic             Coordinates (Angstroms)
 Number     Number       Type             X           Y           Z
 ---------------------------------------------------------------------
      1          6           0        0.735518    0.636460    0.027034
      2          6           0        1.377238   -0.504146   -0.018727
      3          1           0        1.199001    1.599605    0.071687
      4          1           0        2.447014   -0.532496    0.018323
      5          1           0        0.846356   -1.433618   -0.063450
      6          8           0       -0.672718    0.659731    0.047048
      7          8           0       -1.122605    1.407832   -1.138878
      8          1           0       -0.623270    0.988339   -1.864993
 ---------------------------------------------------------------------

 Alpha  occ. eigenvalues --  -20.53353 -20.52303 -11.24909 -11.18976  -1.47231
 Alpha  occ. eigenvalues --   -1.23580  -1.04466  -0.80849  -0.72494  -0.66171
 Alpha  occ. eigenvalues --   -0.63014  -0.59761  -0.55938  -0.51326  -0.45892
 Alpha  occ. eigenvalues --   -0.39159
 Alpha virt. eigenvalues --    0.14949   0.25915   0.27207   0.30338   0.31388
 Alpha virt. eigenvalues --    0.35619   0.48625   0.55867   0.88217   0.96631
 Alpha virt. eigenvalues --    0.97920   1.05849   1.09094   1.10523   1.24316

 Mulliken charges:
               1
     1  C    0.089888
     2  C   -0.465987
     3  H    0.249703
     4  H    0.233969
     5  H    0.250838
     6  O   -0.380447
     7  O   -0.377254
     8  H    0.399290
 Sum of Mulliken charges =   0.00000

 Dipole moment (field-independent basis, Debye):
    X=              3.0233    Y=             -0.9753    Z=             -1.5623  Tot=              3.5401
 Quadrupole moment (field-independent basis, Debye-Ang):
   XX=            -24.7398   YY=            -24.0736   ZZ=            -20.9961
   XY=              3.0476   XZ=              0.0446   YZ=             -0.3531

 Normal termination of Gaussian 09 at Fri Apr 12 15:15:58 2019.
