 Gaussian 09, Revision D.01,
 Gaussian 09:  AS64L-G09RevD.01 24-Apr-2013

 --------------------------------------------------------------------
 #p hf 3-21g scf=tight NoSymmetry guess=read opt=(tight,modredundant)
 --------------------------------------------------------------------

 -----------------------------------
 Geometry optimization at the 2D-PES
 -----------------------------------
 Symbolic Z-matrix:
 Charge =  0 Multiplicity = 1

 SCF Done:  E(RHF) =  -226.396195970     A.U. after   13 cycles
 SCF Done:  E(RHF) =  -226.396202170     A.U. after   12 cycles
 SCF Done:  E(RHF) =  -226.396210385     A.U. after   11 cycles
 SCF Done:  E(RHF) =  -226.396210447     A.U. after    8 cycles
 SCF Done:  E(RHF) =  -226.396210451     A.U. after    6 cycles
 Optimization completed.
    -- Stationary point found.

                          Input orientation:
 ---------------------------------------------------------------------
 Center     Atomic      Atomic             Coordinates (Angstroms)
 Number     Number       Type             X           Y           Z
 ---------------------------------------------------------------------
      1          6           0        0.735380    0.577794    0.061699
      2          6           0        1.415409   -0.535284   -0.039642
      3          1           0        1.176189    1.552507    0.092598
      4          1           0        2.484984   -0.507522   -0.062621
      5          1           0        0.933908   -1.489025   -0.052506
      6          8           0       -0.657134    0.708346    0.047705
      7          8           0       -1.264178   -0.500645    0.604909
      8          1           0       -1.915130   -0.698136   -0.089806
 ---------------------------------------------------------------------

 Alpha  occ. eigenvalues --  -20.53627 -20.52792 -11.24230 -11.16336  -1.47727
 Alpha  occ. eigenvalues --   -1.23908  -1.03089  -0.79190  -0.70597  -0.68547
 Alpha  occ. eigenvalues --   -0.64825  -0.57418  -0.53545  -0.52466  -0.47980
 Alpha  occ. eigenvalues --   -0.36114
 Alpha virt. eigenvalues --    0.18117   0.24276   0.29023   0.30031   0.33250
 Alpha virt. eigenvalues --    0.37306   0.49936   0.58262   0.89032   0.97043
 Alpha virt. eigenvalues --    1.01251   1.07188   1.10363   1.12912   1.22105

 Mulliken charges:
               1
     1  C    0.150252
     2  C   -0.495599
     3  H    0.256571
     4  H    0.222462
     5  H    0.241501
     6  O   -0.415283
     7  O   -0.377866
     8  H    0.417962
 Sum of Mulliken charges =   0.00000

 Dipole moment (field-independent basis, Debye):
    X=              0.2769    Y=             -0.6478    Z=             -1.3095  Tot=              1.4870
 Quadrupole moment (field-independent basis, Debye-Ang):
   XX=            -18.5471   YY=            -21.8482   ZZ=            -26.4566
   XY=              3.2867   XZ=              2.1859   YZ=              1.0556

 Normal termination of Gaussian 09 at Fri Apr 12 17:29:02 2019.
