 Gaussian 09, Revision D.01,
 Gaussian 09:  AS64L-G09RevD.01 24-Apr-2013

 --------------------------------------------------------------------
 #p hf 3-21g scf=tight NoSymmetry guess=read opt=(tight,modredundant)
 --------------------------------------------------------------------

 -----------------------------------
 Geometry optimization at the 2D-PES
 -----------------------------------
 Symbolic Z-matrix:
 Charge =  0 Multiplicity = 1

 SCF Done:  E(RHF) =  -226.381242070     A.U. after   13 cycles
 SCF Done:  E(RHF) =  -226.381248632     A.U. after   11 cycles
 SCF Done:  E(RHF) =  -226.381249826     A.U. after    9 cycles
 SCF Done:  E(RHF) =  -226.381249855     A.U. after    8 cycles
 SCF Done:  E(RHF) =  -226.381249862     A.U. after    7 cycles
 SCF Done:  E(RHF) =  -226.381249862     A.U. after    6 cycles
 Optimization completed.
    -- Stationary point found.

                          Input orientation:
 ---------------------------------------------------------------------
 Center     Atomic      Atomic             Coordinates (Angstroms)
 Number     Number       Type             X           Y           Z
 ---------------------------------------------------------------------
      1          6           0        0.739631    0.611177    0.027223
      2          6           0        1.409941   -0.516363    0.003625
      3          1           0        1.197414    1.576336    0.086362
      4          1           0        2.480044   -0.512761    0.026694
      5          1           0        0.914975   -1.467944   -0.014210
      6          8           0       -0.664708    0.679989    0.008507
      7          8           0       -1.226942    0.057513   -1.206542
      8          1           0       -0.464365   -0.392529   -1.615841
 ---------------------------------------------------------------------

 Alpha  occ. eigenvalues --  -20.53128 -20.52328 -11.25825 -11.19453  -1.46876
 Alpha  occ. eigenvalues --   -1.23747  -1.05427  -0.81178  -0.72558  -0.67714
 Alpha  occ. eigenvalues --   -0.61306  -0.59875  -0.55867  -0.53321  -0.45780
 Alpha  occ. eigenvalues --   -0.38934
 Alpha virt. eigenvalues --    0.14108   0.24539   0.27690   0.29253   0.30751
 Alpha virt. eigenvalues --    0.36575   0.49986   0.55217   0.87330   0.95841
 Alpha virt. eigenvalues --    0.99569   1.04505   1.08016   1.11124   1.23088

 Mulliken charges:
               1
     1  C    0.102886
     2  C   -0.493406
     3  H    0.257670
     4  H    0.239860
     5  H    0.245488
     6  O   -0.385947
     7  O   -0.367886
     8  H    0.401335
 Sum of Mulliken charges =   0.00000

 Dipole moment (field-independent basis, Debye):
    X=              3.5382    Y=             -1.0693    Z=             -0.9141  Tot=              3.8076
 Quadrupole moment (field-independent basis, Debye-Ang):
   XX=            -25.4391   YY=            -21.7963   ZZ=            -23.1674
   XY=              1.8133   XZ=             -1.2248   YZ=              1.5722

 Normal termination of Gaussian 09 at Fri Apr 12 14:58:54 2019.
