 Gaussian 09, Revision D.01,
 Gaussian 09:  AS64L-G09RevD.01 24-Apr-2013

 --------------------------------------------------------------------
 #p hf 3-21g scf=tight NoSymmetry guess=read opt=(tight,modredundant)
 --------------------------------------------------------------------

 -----------------------------------
 Geometry optimization at the 2D-PES
 -----------------------------------
 Symbolic Z-matrix:
 Charge =  0 Multiplicity = 1

 SCF Done:  E(RHF) =  -226.392708932     A.U. after   13 cycles
 SCF Done:  E(RHF) =  -226.392713495     A.U. after   11 cycles
 SCF Done:  E(RHF) =  -226.392715666     A.U. after   10 cycles
 SCF Done:  E(RHF) =  -226.392715729     A.U. after    8 cycles
 SCF Done:  E(RHF) =  -226.392715731     A.U. after    6 cycles
 SCF Done:  E(RHF) =  -226.392715731     A.U. after    5 cycles
 Optimization completed.
    -- Stationary point found.

                          Input orientation:
 ---------------------------------------------------------------------
 Center     Atomic      Atomic             Coordinates (Angstroms)
 Number     Number       Type             X           Y           Z
 ---------------------------------------------------------------------
      1          6           0        0.731576    0.605705    0.054806
      2          6           0        1.389138   -0.522337   -0.020456
      3          1           0        1.194925    1.568949    0.101703
      4          1           0        2.459772   -0.528285   -0.018940
      5          1           0        0.879706   -1.463208   -0.051794
      6          8           0       -0.670754    0.695287    0.011800
      7          8           0       -1.205295   -0.080710    1.146169
      8          1           0       -2.112068   -0.216211    0.821955
 ---------------------------------------------------------------------

 Alpha  occ. eigenvalues --  -20.52387 -20.51851 -11.23659 -11.17146  -1.46250
 Alpha  occ. eigenvalues --   -1.23098  -1.03023  -0.78857  -0.69987  -0.67599
 Alpha  occ. eigenvalues --   -0.64202  -0.57823  -0.54427  -0.51477  -0.45282
 Alpha  occ. eigenvalues --   -0.37058
 Alpha virt. eigenvalues --    0.15990   0.26722   0.29411   0.30303   0.32308
 Alpha virt. eigenvalues --    0.37152   0.50091   0.57202   0.88989   0.97478
 Alpha virt. eigenvalues --    0.99864   1.06987   1.10343   1.12602   1.23111

 Mulliken charges:
               1
     1  C    0.140972
     2  C   -0.460361
     3  H    0.244715
     4  H    0.225356
     5  H    0.243043
     6  O   -0.422971
     7  O   -0.386252
     8  H    0.415498
 Sum of Mulliken charges =   0.00000

 Dipole moment (field-independent basis, Debye):
    X=              0.0306    Y=             -0.6291    Z=             -0.3866  Tot=              0.7390
 Quadrupole moment (field-independent basis, Debye-Ang):
   XX=            -16.2148   YY=            -22.2472   ZZ=            -27.0059
   XY=              2.2296   XZ=             -0.7867   YZ=              0.1201

 Normal termination of Gaussian 09 at Fri Apr 12 17:00:04 2019.
