 Gaussian 09, Revision D.01,
 Gaussian 09:  AS64L-G09RevD.01 24-Apr-2013

 --------------------------------------------------------------------
 #p hf 3-21g scf=tight NoSymmetry guess=read opt=(tight,modredundant)
 --------------------------------------------------------------------

 -----------------------------------
 Geometry optimization at the 2D-PES
 -----------------------------------
 Symbolic Z-matrix:
 Charge =  0 Multiplicity = 1

 SCF Done:  E(RHF) =  -226.385807930     A.U. after   13 cycles
 SCF Done:  E(RHF) =  -226.385825277     A.U. after   13 cycles
 SCF Done:  E(RHF) =  -226.385845302     A.U. after   11 cycles
 SCF Done:  E(RHF) =  -226.385845521     A.U. after   10 cycles
 SCF Done:  E(RHF) =  -226.385845573     A.U. after    9 cycles
 SCF Done:  E(RHF) =  -226.385845576     A.U. after    6 cycles
 Optimization completed.
    -- Stationary point found.

                          Input orientation:
 ---------------------------------------------------------------------
 Center     Atomic      Atomic             Coordinates (Angstroms)
 Number     Number       Type             X           Y           Z
 ---------------------------------------------------------------------
      1          6           0        0.748267    0.591384    0.044251
      2          6           0        1.423242   -0.530249   -0.032129
      3          1           0        1.194430    1.563463    0.069002
      4          1           0        2.493195   -0.517610   -0.035471
      5          1           0        0.930853   -1.479228   -0.099050
      6          8           0       -0.649602    0.693773    0.038460
      7          8           0       -1.270260   -0.372876    0.834642
      8          1           0       -0.602656   -0.560733    1.522484
 ---------------------------------------------------------------------

 Alpha  occ. eigenvalues --  -20.53811 -20.52819 -11.25689 -11.18550  -1.47745
 Alpha  occ. eigenvalues --   -1.24019  -1.05016  -0.81153  -0.71811  -0.68473
 Alpha  occ. eigenvalues --   -0.62804  -0.58198  -0.56693  -0.52781  -0.47168
 Alpha  occ. eigenvalues --   -0.38007
 Alpha virt. eigenvalues --    0.15602   0.24309   0.27850   0.28769   0.31244
 Alpha virt. eigenvalues --    0.36719   0.49740   0.56371   0.87495   0.96424
 Alpha virt. eigenvalues --    0.99465   1.04912   1.08406   1.10933   1.23569

 Mulliken charges:
               1
     1  C    0.104688
     2  C   -0.503887
     3  H    0.262780
     4  H    0.234989
     5  H    0.249519
     6  O   -0.384206
     7  O   -0.366579
     8  H    0.402697
 Sum of Mulliken charges =   0.00000

 Dipole moment (field-independent basis, Debye):
    X=              3.1823    Y=             -0.5412    Z=              1.4742  Tot=              3.5487
 Quadrupole moment (field-independent basis, Debye-Ang):
   XX=            -25.4974   YY=            -21.8613   ZZ=            -22.1958
   XY=              1.1802   XZ=              0.2132   YZ=             -0.9423

 Normal termination of Gaussian 09 at Fri Apr 12 17:21:18 2019.
