 Gaussian 09, Revision D.01,
 Gaussian 09:  AS64L-G09RevD.01 24-Apr-2013

 --------------------------------------------------------------------
 #p hf 3-21g scf=tight NoSymmetry guess=read opt=(tight,modredundant)
 --------------------------------------------------------------------

 -----------------------------------
 Geometry optimization at the 2D-PES
 -----------------------------------
 Symbolic Z-matrix:
 Charge =  0 Multiplicity = 1

 SCF Done:  E(RHF) =  -226.395687708     A.U. after   12 cycles
 SCF Done:  E(RHF) =  -226.395698405     A.U. after   12 cycles
 SCF Done:  E(RHF) =  -226.395714802     A.U. after   11 cycles
 SCF Done:  E(RHF) =  -226.395714909     A.U. after    9 cycles
 SCF Done:  E(RHF) =  -226.395714920     A.U. after    8 cycles
 SCF Done:  E(RHF) =  -226.395714920     A.U. after    6 cycles
 Optimization completed.
    -- Stationary point found.

                          Input orientation:
 ---------------------------------------------------------------------
 Center     Atomic      Atomic             Coordinates (Angstroms)
 Number     Number       Type             X           Y           Z
 ---------------------------------------------------------------------
      1          6           0        0.739025    0.571378    0.060398
      2          6           0        1.428000   -0.535872   -0.047919
      3          1           0        1.172557    1.549203    0.095026
      4          1           0        2.496826   -0.496530   -0.077834
      5          1           0        0.960991   -1.496709   -0.057104
      6          8           0       -0.652304    0.706033    0.057615
      7          8           0       -1.288012   -0.563937    0.385640
      8          1           0       -1.540542   -0.885153   -0.498353
 ---------------------------------------------------------------------

 Alpha  occ. eigenvalues --  -20.54204 -20.53240 -11.24741 -11.16624  -1.48430
 Alpha  occ. eigenvalues --   -1.24223  -1.03590  -0.79800  -0.70312  -0.69776
 Alpha  occ. eigenvalues --   -0.65247  -0.56861  -0.53733  -0.53000  -0.48789
 Alpha  occ. eigenvalues --   -0.36540
 Alpha virt. eigenvalues --    0.18628   0.22954   0.28726   0.29512   0.33203
 Alpha virt. eigenvalues --    0.37102   0.49623   0.58282   0.88683   0.96563
 Alpha virt. eigenvalues --    1.00487   1.06830   1.09972   1.11953   1.23668

 Mulliken charges:
               1
     1  C    0.149155
     2  C   -0.508987
     3  H    0.261320
     4  H    0.225336
     5  H    0.234612
     6  O   -0.404906
     7  O   -0.370384
     8  H    0.413855
 Sum of Mulliken charges =   0.00000

 Dipole moment (field-independent basis, Debye):
    X=              1.0613    Y=             -0.8045    Z=             -1.7374  Tot=              2.1891
 Quadrupole moment (field-independent basis, Debye-Ang):
   XX=            -21.6416   YY=            -21.3554   ZZ=            -25.4220
   XY=              3.1582   XZ=              2.8794   YZ=              1.7082

 Normal termination of Gaussian 09 at Fri Apr 12 17:34:47 2019.
