 Gaussian 09, Revision D.01,
 Gaussian 09:  AS64L-G09RevD.01 24-Apr-2013

 --------------------------------------------------------------------
 #p hf 3-21g scf=tight NoSymmetry guess=read opt=(tight,modredundant)
 --------------------------------------------------------------------

 -----------------------------------
 Geometry optimization at the 2D-PES
 -----------------------------------
 Symbolic Z-matrix:
 Charge =  0 Multiplicity = 1

 SCF Done:  E(RHF) =  -226.395474845     A.U. after   12 cycles
 SCF Done:  E(RHF) =  -226.395482447     A.U. after   11 cycles
 SCF Done:  E(RHF) =  -226.395489346     A.U. after   10 cycles
 SCF Done:  E(RHF) =  -226.395489416     A.U. after    9 cycles
 SCF Done:  E(RHF) =  -226.395489426     A.U. after    8 cycles
 SCF Done:  E(RHF) =  -226.395489427     A.U. after    6 cycles
 Optimization completed.
    -- Stationary point found.

                          Input orientation:
 ---------------------------------------------------------------------
 Center     Atomic      Atomic             Coordinates (Angstroms)
 Number     Number       Type             X           Y           Z
 ---------------------------------------------------------------------
      1          6           0        0.741831    0.576000    0.050385
      2          6           0        1.425595   -0.535733   -0.040871
      3          1           0        1.175452    1.554177    0.082099
      4          1           0        2.495206   -0.504759   -0.055965
      5          1           0        0.941834   -1.486925   -0.092809
      6          8           0       -0.653598    0.705257    0.050885
      7          8           0       -1.277450   -0.564374    0.405706
      8          1           0       -1.336069   -0.484361    1.374763
 ---------------------------------------------------------------------

 Alpha  occ. eigenvalues --  -20.54087 -20.53085 -11.24616 -11.16650  -1.48285
 Alpha  occ. eigenvalues --   -1.23979  -1.03559  -0.80070  -0.70159  -0.69152
 Alpha  occ. eigenvalues --   -0.64088  -0.58446  -0.55238  -0.50671  -0.48655
 Alpha  occ. eigenvalues --   -0.36706
 Alpha virt. eigenvalues --    0.18401   0.23451   0.28632   0.29513   0.33201
 Alpha virt. eigenvalues --    0.37107   0.49564   0.58276   0.88502   0.96475
 Alpha virt. eigenvalues --    1.00810   1.06770   1.10014   1.11618   1.23601

 Mulliken charges:
               1
     1  C    0.128350
     2  C   -0.503805
     3  H    0.258467
     4  H    0.223423
     5  H    0.252991
     6  O   -0.398786
     7  O   -0.372672
     8  H    0.412032
 Sum of Mulliken charges =   0.00000

 Dipole moment (field-independent basis, Debye):
    X=              1.5158    Y=             -0.0450    Z=              2.1077  Tot=              2.5965
 Quadrupole moment (field-independent basis, Debye-Ang):
   XX=            -22.9105   YY=            -22.5441   ZZ=            -21.8211
   XY=              1.4361   XZ=             -2.9745   YZ=             -0.7477

 Normal termination of Gaussian 09 at Fri Apr 12 17:40:02 2019.
