 Gaussian 09, Revision D.01,
 Gaussian 09:  AS64L-G09RevD.01 24-Apr-2013

 --------------------------------------------------------------------
 #p hf 3-21g scf=tight NoSymmetry guess=read opt=(tight,modredundant)
 --------------------------------------------------------------------

 -----------------------------------
 Geometry optimization at the 2D-PES
 -----------------------------------
 Symbolic Z-matrix:
 Charge =  0 Multiplicity = 1

 SCF Done:  E(RHF) =  -226.381723118     A.U. after   14 cycles
 SCF Done:  E(RHF) =  -226.381780720     A.U. after   13 cycles
 SCF Done:  E(RHF) =  -226.381939218     A.U. after   13 cycles
 SCF Done:  E(RHF) =  -226.381940667     A.U. after   11 cycles
 SCF Done:  E(RHF) =  -226.381941028     A.U. after   10 cycles
 SCF Done:  E(RHF) =  -226.381941039     A.U. after    8 cycles
 Optimization completed.
    -- Stationary point found.

                          Input orientation:
 ---------------------------------------------------------------------
 Center     Atomic      Atomic             Coordinates (Angstroms)
 Number     Number       Type             X           Y           Z
 ---------------------------------------------------------------------
      1          6           0        0.741607    0.569263    0.004247
      2          6           0        1.457813   -0.528776    0.024700
      3          1           0        1.174049    1.544492    0.085198
      4          1           0        2.522917   -0.458700    0.095063
      5          1           0        1.055870   -1.520719   -0.028648
      6          8           0       -0.646287    0.700758   -0.037094
      7          8           0       -1.345563   -0.385793   -0.723220
      8          1           0       -0.790260   -1.171100   -0.586758
 ---------------------------------------------------------------------

 Alpha  occ. eigenvalues --  -20.54426 -20.53234 -11.26319 -11.18546  -1.48284
 Alpha  occ. eigenvalues --   -1.24829  -1.05371  -0.81291  -0.73426  -0.67940
 Alpha  occ. eigenvalues --   -0.64591  -0.58736  -0.54769  -0.53533  -0.48704
 Alpha  occ. eigenvalues --   -0.37609
 Alpha virt. eigenvalues --    0.16649   0.21402   0.26971   0.27633   0.35913
 Alpha virt. eigenvalues --    0.36904   0.49697   0.59821   0.87909   0.95273
 Alpha virt. eigenvalues --    1.00764   1.05332   1.07994   1.10790   1.24354

 Mulliken charges:
               1
     1  C    0.145659
     2  C   -0.525391
     3  H    0.270851
     4  H    0.242962
     5  H    0.206624
     6  O   -0.391504
     7  O   -0.362454
     8  H    0.413253
 Sum of Mulliken charges =   0.00000

 Dipole moment (field-independent basis, Debye):
    X=              2.8132    Y=             -1.5499    Z=              0.2222  Tot=              3.2196
 Quadrupole moment (field-independent basis, Debye-Ang):
   XX=            -25.3516   YY=            -19.6331   ZZ=            -26.1692
   XY=              2.5761   XZ=             -0.7560   YZ=              1.0057

 Normal termination of Gaussian 09 at Fri Apr 12 14:55:11 2019.
