 Gaussian 09, Revision D.01,
 Gaussian 09:  AS64L-G09RevD.01 24-Apr-2013

 --------------------------------------------------------------------
 #p hf 3-21g scf=tight NoSymmetry guess=read opt=(tight,modredundant)
 --------------------------------------------------------------------

 -----------------------------------
 Geometry optimization at the 2D-PES
 -----------------------------------
 Symbolic Z-matrix:
 Charge =  0 Multiplicity = 1

 SCF Done:  E(RHF) =  -226.389042848     A.U. after   14 cycles
 SCF Done:  E(RHF) =  -226.389110650     A.U. after   11 cycles
 SCF Done:  E(RHF) =  -226.389135374     A.U. after   11 cycles
 SCF Done:  E(RHF) =  -226.389136193     A.U. after   10 cycles
 SCF Done:  E(RHF) =  -226.389136273     A.U. after    9 cycles
 SCF Done:  E(RHF) =  -226.389136278     A.U. after    8 cycles
 Optimization completed.
    -- Stationary point found.

                          Input orientation:
 ---------------------------------------------------------------------
 Center     Atomic      Atomic             Coordinates (Angstroms)
 Number     Number       Type             X           Y           Z
 ---------------------------------------------------------------------
      1          6           0        0.731773    0.614669    0.040476
      2          6           0        1.386825   -0.517393   -0.008910
      3          1           0        1.199455    1.573095    0.117711
      4          1           0        2.457239   -0.530408    0.011852
      5          1           0        0.881511   -1.459532   -0.090741
      6          8           0       -0.679721    0.672541   -0.006217
      7          8           0       -1.193953    0.360860    1.336001
      8          1           0       -1.290736   -0.605949    1.282184
 ---------------------------------------------------------------------

 Alpha  occ. eigenvalues --  -20.52751 -20.52139 -11.24483 -11.18613  -1.46783
 Alpha  occ. eigenvalues --   -1.23149  -1.04217  -0.79887  -0.71730  -0.65897
 Alpha  occ. eigenvalues --   -0.65232  -0.58967  -0.55914  -0.47956  -0.47279
 Alpha  occ. eigenvalues --   -0.39076
 Alpha virt. eigenvalues --    0.14858   0.24521   0.28670   0.30378   0.32184
 Alpha virt. eigenvalues --    0.36324   0.49546   0.56012   0.88106   0.96497
 Alpha virt. eigenvalues --    0.97642   1.06104   1.09084   1.11497   1.25280

 Mulliken charges:
               1
     1  C    0.132106
     2  C   -0.467728
     3  H    0.246962
     4  H    0.234785
     5  H    0.228151
     6  O   -0.401787
     7  O   -0.376155
     8  H    0.403666
 Sum of Mulliken charges =   0.00000

 Dipole moment (field-independent basis, Debye):
    X=              1.8367    Y=             -2.1531    Z=              0.1692  Tot=              2.8351
 Quadrupole moment (field-independent basis, Debye-Ang):
   XX=            -22.3702   YY=            -21.5088   ZZ=            -25.9280
   XY=              3.9260   XZ=             -0.2095   YZ=             -2.2755

 Normal termination of Gaussian 09 at Fri Apr 12 16:43:03 2019.
