 Gaussian 09, Revision D.01,
 Gaussian 09:  AS64L-G09RevD.01 24-Apr-2013

 --------------------------------------------------------------------
 #p hf 3-21g scf=tight NoSymmetry guess=read opt=(tight,modredundant)
 --------------------------------------------------------------------

 -----------------------------------
 Geometry optimization at the 2D-PES
 -----------------------------------
 Symbolic Z-matrix:
 Charge =  0 Multiplicity = 1

 SCF Done:  E(RHF) =  -226.388486209     A.U. after   12 cycles
 SCF Done:  E(RHF) =  -226.388496637     A.U. after   11 cycles
 SCF Done:  E(RHF) =  -226.388504507     A.U. after   10 cycles
 SCF Done:  E(RHF) =  -226.388504552     A.U. after    9 cycles
 SCF Done:  E(RHF) =  -226.388504556     A.U. after    7 cycles
 Optimization completed.
    -- Stationary point found.

                          Input orientation:
 ---------------------------------------------------------------------
 Center     Atomic      Atomic             Coordinates (Angstroms)
 Number     Number       Type             X           Y           Z
 ---------------------------------------------------------------------
      1          6           0        0.735260    0.606540    0.046099
      2          6           0        1.395742   -0.521551   -0.016115
      3          1           0        1.203109    1.566305    0.107235
      4          1           0        2.466237   -0.526003   -0.005559
      5          1           0        0.900856   -1.470159   -0.083782
      6          8           0       -0.674350    0.683706    0.006626
      7          8           0       -1.220247    0.141063    1.257699
      8          1           0       -1.328630   -0.798475    1.029884
 ---------------------------------------------------------------------

 Alpha  occ. eigenvalues --  -20.52836 -20.52291 -11.24543 -11.18479  -1.46901
 Alpha  occ. eigenvalues --   -1.23264  -1.04238  -0.79865  -0.71633  -0.66454
 Alpha  occ. eigenvalues --   -0.65444  -0.58505  -0.55682  -0.48259  -0.47826
 Alpha  occ. eigenvalues --   -0.38648
 Alpha virt. eigenvalues --    0.14975   0.24009   0.28709   0.29944   0.32830
 Alpha virt. eigenvalues --    0.36550   0.49868   0.56243   0.88105   0.96474
 Alpha virt. eigenvalues --    0.97688   1.06059   1.09116   1.11508   1.25410

 Mulliken charges:
               1
     1  C    0.135969
     2  C   -0.470540
     3  H    0.249308
     4  H    0.235079
     5  H    0.222670
     6  O   -0.403818
     7  O   -0.373304
     8  H    0.404636
 Sum of Mulliken charges =   0.00000

 Dipole moment (field-independent basis, Debye):
    X=              1.7723    Y=             -2.1135    Z=             -0.1844  Tot=              2.7644
 Quadrupole moment (field-independent basis, Debye-Ang):
   XX=            -22.2599   YY=            -20.7814   ZZ=            -26.7341
   XY=              4.0566   XZ=              0.2763   YZ=             -1.7210

 Normal termination of Gaussian 09 at Fri Apr 12 16:56:10 2019.
