 Gaussian 09, Revision D.01,
 Gaussian 09:  AS64L-G09RevD.01 24-Apr-2013

 --------------------------------------------------------------------
 #p hf 3-21g scf=tight NoSymmetry guess=read opt=(tight,modredundant)
 --------------------------------------------------------------------

 -----------------------------------
 Geometry optimization at the 2D-PES
 -----------------------------------
 Symbolic Z-matrix:
 Charge =  0 Multiplicity = 1

 SCF Done:  E(RHF) =  -226.387790288     A.U. after   12 cycles
 SCF Done:  E(RHF) =  -226.387813522     A.U. after   12 cycles
 SCF Done:  E(RHF) =  -226.387835273     A.U. after   12 cycles
 SCF Done:  E(RHF) =  -226.387835474     A.U. after   10 cycles
 SCF Done:  E(RHF) =  -226.387835510     A.U. after    9 cycles
 SCF Done:  E(RHF) =  -226.387835511     A.U. after    7 cycles
 Optimization completed.
    -- Stationary point found.

                          Input orientation:
 ---------------------------------------------------------------------
 Center     Atomic      Atomic             Coordinates (Angstroms)
 Number     Number       Type             X           Y           Z
 ---------------------------------------------------------------------
      1          6           0        0.745416    0.635826    0.023166
      2          6           0        1.377161   -0.509738   -0.011754
      3          1           0        1.221208    1.589970    0.112770
      4          1           0        2.446429   -0.538852    0.023169
      5          1           0        0.846078   -1.437813   -0.069554
      6          8           0       -0.658985    0.683068    0.032395
      7          8           0       -1.094653    2.064109   -0.167180
      8          1           0       -0.717038    2.292682   -1.036869
 ---------------------------------------------------------------------

 Alpha  occ. eigenvalues --  -20.54111 -20.53343 -11.25134 -11.17421  -1.48350
 Alpha  occ. eigenvalues --   -1.24284  -1.03741  -0.81028  -0.72300  -0.66125
 Alpha  occ. eigenvalues --   -0.65418  -0.58089  -0.54770  -0.53027  -0.48554
 Alpha  occ. eigenvalues --   -0.36825
 Alpha virt. eigenvalues --    0.17356   0.22603   0.26439   0.31352   0.33362
 Alpha virt. eigenvalues --    0.35409   0.49562   0.56771   0.89142   0.96485
 Alpha virt. eigenvalues --    0.99109   1.06177   1.09954   1.10678   1.24866

 Mulliken charges:
               1
     1  C    0.122034
     2  C   -0.497477
     3  H    0.250025
     4  H    0.230188
     5  H    0.246459
     6  O   -0.386519
     7  O   -0.367339
     8  H    0.402628
 Sum of Mulliken charges =   0.00000

 Dipole moment (field-independent basis, Debye):
    X=              2.5420    Y=              0.6908    Z=             -1.7843  Tot=              3.1817
 Quadrupole moment (field-independent basis, Debye-Ang):
   XX=            -24.5261   YY=            -19.6476   ZZ=            -23.4065
   XY=              2.4306   XZ=              1.4234   YZ=             -4.1850

 Normal termination of Gaussian 09 at Fri Apr 12 15:35:11 2019.
