 Gaussian 09, Revision D.01,
 Gaussian 09:  AS64L-G09RevD.01 24-Apr-2013

 --------------------------------------------------------------------
 #p hf 3-21g scf=tight NoSymmetry guess=read opt=(tight,modredundant)
 --------------------------------------------------------------------

 -----------------------------------
 Geometry optimization at the 2D-PES
 -----------------------------------
 Symbolic Z-matrix:
 Charge =  0 Multiplicity = 1

 SCF Done:  E(RHF) =  -226.395135714     A.U. after   13 cycles
 SCF Done:  E(RHF) =  -226.395136183     A.U. after   10 cycles
 SCF Done:  E(RHF) =  -226.395136225     A.U. after    8 cycles
 SCF Done:  E(RHF) =  -226.395136238     A.U. after    7 cycles
 Optimization completed.
    -- Stationary point found.

                          Input orientation:
 ---------------------------------------------------------------------
 Center     Atomic      Atomic             Coordinates (Angstroms)
 Number     Number       Type             X           Y           Z
 ---------------------------------------------------------------------
      1          6           0        0.724241    0.632307    0.047879
      2          6           0        1.367789   -0.505824    0.004233
      3          1           0        1.184550    1.593562    0.130429
      4          1           0        2.438187   -0.528958   -0.001484
      5          1           0        0.839549   -1.435816   -0.045788
      6          8           0       -0.676580    0.665893   -0.028396
      7          8           0       -1.119354    1.299224    1.229432
      8          1           0       -2.058497    1.427295    1.013675
 ---------------------------------------------------------------------

 Alpha  occ. eigenvalues --  -20.52646 -20.51714 -11.23762 -11.17302  -1.46436
 Alpha  occ. eigenvalues --   -1.23292  -1.02878  -0.79319  -0.68853  -0.68643
 Alpha  occ. eigenvalues --   -0.64255  -0.57248  -0.55593  -0.51317  -0.45002
 Alpha  occ. eigenvalues --   -0.37465
 Alpha virt. eigenvalues --    0.16415   0.26867   0.28761   0.31485   0.32331
 Alpha virt. eigenvalues --    0.36217   0.49526   0.57144   0.89617   0.97440
 Alpha virt. eigenvalues --    0.99728   1.07134   1.10641   1.12274   1.23779

 Mulliken charges:
               1
     1  C    0.155644
     2  C   -0.470462
     3  H    0.242333
     4  H    0.226553
     5  H    0.243795
     6  O   -0.419871
     7  O   -0.394971
     8  H    0.416979
 Sum of Mulliken charges =   0.00000

 Dipole moment (field-independent basis, Debye):
    X=             -0.0280    Y=              0.2327    Z=             -0.1879  Tot=              0.3004
 Quadrupole moment (field-independent basis, Debye-Ang):
   XX=            -16.3149   YY=            -21.2567   ZZ=            -26.7399
   XY=             -2.1351   XZ=             -1.6659   YZ=              0.0905

 Normal termination of Gaussian 09 at Fri Apr 12 16:15:17 2019.
