 Gaussian 09, Revision D.01,
 Gaussian 09:  AS64L-G09RevD.01 24-Apr-2013

 --------------------------------------------------------------------
 #p hf 3-21g scf=tight NoSymmetry guess=read opt=(tight,modredundant)
 --------------------------------------------------------------------

 -----------------------------------
 Geometry optimization at the 2D-PES
 -----------------------------------
 Symbolic Z-matrix:
 Charge =  0 Multiplicity = 1

 SCF Done:  E(RHF) =  -226.395962856     A.U. after   13 cycles
 SCF Done:  E(RHF) =  -226.395964874     A.U. after   11 cycles
 SCF Done:  E(RHF) =  -226.395967220     A.U. after   10 cycles
 SCF Done:  E(RHF) =  -226.395967251     A.U. after    8 cycles
 SCF Done:  E(RHF) =  -226.395967254     A.U. after    6 cycles
 Optimization completed.
    -- Stationary point found.

                          Input orientation:
 ---------------------------------------------------------------------
 Center     Atomic      Atomic             Coordinates (Angstroms)
 Number     Number       Type             X           Y           Z
 ---------------------------------------------------------------------
      1          6           0        0.732510    0.580644    0.059757
      2          6           0        1.408659   -0.535163   -0.035978
      3          1           0        1.176530    1.554391    0.088321
      4          1           0        2.478690   -0.510862   -0.050868
      5          1           0        0.921637   -1.486044   -0.065942
      6          8           0       -0.658146    0.710028    0.044465
      7          8           0       -1.251875   -0.505804    0.611291
      8          1           0       -2.128108   -0.152878    0.839626
 ---------------------------------------------------------------------

 Alpha  occ. eigenvalues --  -20.53350 -20.52401 -11.23976 -11.16018  -1.47305
 Alpha  occ. eigenvalues --   -1.23739  -1.02717  -0.79001  -0.71562  -0.64871
 Alpha  occ. eigenvalues --   -0.63607  -0.61877  -0.53899  -0.50543  -0.47276
 Alpha  occ. eigenvalues --   -0.35830
 Alpha virt. eigenvalues --    0.18506   0.24361   0.28866   0.30587   0.33815
 Alpha virt. eigenvalues --    0.37356   0.50304   0.58607   0.89284   0.97576
 Alpha virt. eigenvalues --    1.00328   1.07502   1.10810   1.12741   1.24034

 Mulliken charges:
               1
     1  C    0.151323
     2  C   -0.492815
     3  H    0.253022
     4  H    0.219777
     5  H    0.254039
     6  O   -0.422490
     7  O   -0.385309
     8  H    0.422454
 Sum of Mulliken charges =   0.00000

 Dipole moment (field-independent basis, Debye):
    X=             -0.1923    Y=              0.4702    Z=              0.6678  Tot=              0.8390
 Quadrupole moment (field-independent basis, Debye-Ang):
   XX=            -16.4685   YY=            -22.8647   ZZ=            -24.9970
   XY=              0.8830   XZ=             -2.3798   YZ=              0.6160

 Normal termination of Gaussian 09 at Fri Apr 12 17:27:24 2019.
