 Gaussian 09, Revision D.01,
 Gaussian 09:  AS64L-G09RevD.01 24-Apr-2013

 --------------------------------------------------------------------
 #p hf 3-21g scf=tight NoSymmetry guess=read opt=(tight,modredundant)
 --------------------------------------------------------------------

 -----------------------------------
 Geometry optimization at the 2D-PES
 -----------------------------------
 Symbolic Z-matrix:
 Charge =  0 Multiplicity = 1

 SCF Done:  E(RHF) =  -226.387351424     A.U. after   13 cycles
 SCF Done:  E(RHF) =  -226.387376716     A.U. after   12 cycles
 SCF Done:  E(RHF) =  -226.387426218     A.U. after   12 cycles
 SCF Done:  E(RHF) =  -226.387426458     A.U. after    9 cycles
 SCF Done:  E(RHF) =  -226.387426516     A.U. after    9 cycles
 SCF Done:  E(RHF) =  -226.387426521     A.U. after    7 cycles
 Optimization completed.
    -- Stationary point found.

                          Input orientation:
 ---------------------------------------------------------------------
 Center     Atomic      Atomic             Coordinates (Angstroms)
 Number     Number       Type             X           Y           Z
 ---------------------------------------------------------------------
      1          6           0        0.744332    0.565502    0.073046
      2          6           0        1.447847   -0.533934   -0.040571
      3          1           0        1.182723    1.541397    0.090145
      4          1           0        2.515275   -0.474618   -0.080361
      5          1           0        1.023975   -1.516687   -0.048147
      6          8           0       -0.645965    0.701686    0.061285
      7          8           0       -1.332585   -0.472375    0.588665
      8          1           0       -1.047461   -1.188674   -0.006052
 ---------------------------------------------------------------------

 Alpha  occ. eigenvalues --  -20.54415 -20.53366 -11.25722 -11.17985  -1.48526
 Alpha  occ. eigenvalues --   -1.24554  -1.04789  -0.80761  -0.72642  -0.67916
 Alpha  occ. eigenvalues --   -0.65873  -0.57794  -0.54582  -0.52843  -0.48913
 Alpha  occ. eigenvalues --   -0.37499
 Alpha virt. eigenvalues --    0.17112   0.21886   0.27622   0.28154   0.35182
 Alpha virt. eigenvalues --    0.36784   0.49658   0.58720   0.88106   0.95891
 Alpha virt. eigenvalues --    0.99326   1.05805   1.08785   1.11093   1.25189

 Mulliken charges:
               1
     1  C    0.148636
     2  C   -0.514979
     3  H    0.266992
     4  H    0.237423
     5  H    0.209179
     6  O   -0.394930
     7  O   -0.362624
     8  H    0.410302
 Sum of Mulliken charges =   0.00000

 Dipole moment (field-independent basis, Debye):
    X=              2.2379    Y=             -1.4712    Z=             -1.0499  Tot=              2.8767
 Quadrupole moment (field-independent basis, Debye-Ang):
   XX=            -24.3610   YY=            -19.7728   ZZ=            -26.4636
   XY=              3.0551   XZ=              1.6315   YZ=              0.8963

 Normal termination of Gaussian 09 at Fri Apr 12 17:31:05 2019.
