 Gaussian 09, Revision D.01,
 Gaussian 09:  AS64L-G09RevD.01 24-Apr-2013

 --------------------------------------------------------------------
 #p hf 3-21g scf=tight NoSymmetry guess=read opt=(tight,modredundant)
 --------------------------------------------------------------------

 -----------------------------------
 Geometry optimization at the 2D-PES
 -----------------------------------
 Symbolic Z-matrix:
 Charge =  0 Multiplicity = 1

 SCF Done:  E(RHF) =  -226.389028253     A.U. after   12 cycles
 SCF Done:  E(RHF) =  -226.389033106     A.U. after   11 cycles
 SCF Done:  E(RHF) =  -226.389038359     A.U. after   10 cycles
 SCF Done:  E(RHF) =  -226.389038373     A.U. after    7 cycles
 SCF Done:  E(RHF) =  -226.389038376     A.U. after    7 cycles
 Optimization completed.
    -- Stationary point found.

                          Input orientation:
 ---------------------------------------------------------------------
 Center     Atomic      Atomic             Coordinates (Angstroms)
 Number     Number       Type             X           Y           Z
 ---------------------------------------------------------------------
      1          6           0        0.744752    0.605125    0.054078
      2          6           0        1.400708   -0.523675   -0.021363
      3          1           0        1.207859    1.570320    0.083275
      4          1           0        2.471555   -0.532554   -0.026859
      5          1           0        0.884697   -1.461234   -0.055134
      6          8           0       -0.665585    0.693496    0.019968
      7          8           0       -1.228080   -0.064780    1.143473
      8          1           0       -1.117081    0.559770    1.882991
 ---------------------------------------------------------------------

 Alpha  occ. eigenvalues --  -20.52796 -20.52167 -11.24076 -11.17886  -1.46820
 Alpha  occ. eigenvalues --   -1.23036  -1.03724  -0.80176  -0.69720  -0.68379
 Alpha  occ. eigenvalues --   -0.61643  -0.60135  -0.56284  -0.48443  -0.46808
 Alpha  occ. eigenvalues --   -0.38178
 Alpha virt. eigenvalues --    0.15264   0.26170   0.28746   0.29638   0.32014
 Alpha virt. eigenvalues --    0.36815   0.49714   0.56598   0.88057   0.96666
 Alpha virt. eigenvalues --    0.99137   1.06281   1.09677   1.11285   1.24248

 Mulliken charges:
               1
     1  C    0.097321
     2  C   -0.454560
     3  H    0.241918
     4  H    0.227033
     5  H    0.257324
     6  O   -0.395460
     7  O   -0.376837
     8  H    0.403261
 Sum of Mulliken charges =   0.00000

 Dipole moment (field-independent basis, Debye):
    X=              2.2173    Y=              0.8676    Z=              1.7500  Tot=              2.9549
 Quadrupole moment (field-independent basis, Debye-Ang):
   XX=            -23.5069   YY=            -21.6058   ZZ=            -20.7328
   XY=             -0.3567   XZ=             -1.6088   YZ=              2.7839

 Normal termination of Gaussian 09 at Fri Apr 12 17:03:00 2019.
