 Gaussian 09, Revision D.01,
 Gaussian 09:  AS64L-G09RevD.01 24-Apr-2013

 --------------------------------------------------------------------
 #p hf 3-21g scf=tight NoSymmetry guess=read opt=(tight,modredundant)
 --------------------------------------------------------------------

 -----------------------------------
 Geometry optimization at the 2D-PES
 -----------------------------------
 Symbolic Z-matrix:
 Charge =  0 Multiplicity = 1

 SCF Done:  E(RHF) =  -226.395997369     A.U. after   13 cycles
 SCF Done:  E(RHF) =  -226.395999744     A.U. after   11 cycles
 SCF Done:  E(RHF) =  -226.396001776     A.U. after   10 cycles
 SCF Done:  E(RHF) =  -226.396001819     A.U. after    8 cycles
 SCF Done:  E(RHF) =  -226.396001821     A.U. after    7 cycles
 Optimization completed.
    -- Stationary point found.

                          Input orientation:
 ---------------------------------------------------------------------
 Center     Atomic      Atomic             Coordinates (Angstroms)
 Number     Number       Type             X           Y           Z
 ---------------------------------------------------------------------
      1          6           0        0.722717    0.633862    0.047142
      2          6           0        1.367532   -0.504680   -0.005000
      3          1           0        1.178372    1.598054    0.102614
      4          1           0        2.437522   -0.517384   -0.002817
      5          1           0        0.850499   -1.441139   -0.053188
      6          8           0       -0.674211    0.672819    0.002895
      7          8           0       -1.056903    2.051776    0.324551
      8          1           0       -1.954586    2.056154   -0.046652
 ---------------------------------------------------------------------

 Alpha  occ. eigenvalues --  -20.53632 -20.52796 -11.24266 -11.16147  -1.47787
 Alpha  occ. eigenvalues --   -1.24141  -1.02535  -0.79819  -0.70527  -0.67315
 Alpha  occ. eigenvalues --   -0.64324  -0.58976  -0.55299  -0.50939  -0.48512
 Alpha  occ. eigenvalues --   -0.35494
 Alpha virt. eigenvalues --    0.19428   0.22812   0.27675   0.32244   0.34094
 Alpha virt. eigenvalues --    0.36087   0.50174   0.57871   0.90432   0.97367
 Alpha virt. eigenvalues --    1.00361   1.06940   1.11047   1.12447   1.23023

 Mulliken charges:
               1
     1  C    0.172399
     2  C   -0.512552
     3  H    0.264547
     4  H    0.225596
     5  H    0.236214
     6  O   -0.421358
     7  O   -0.388166
     8  H    0.423320
 Sum of Mulliken charges =   0.00000

 Dipole moment (field-independent basis, Debye):
    X=             -0.2265    Y=              0.5120    Z=             -0.6897  Tot=              0.8883
 Quadrupole moment (field-independent basis, Debye-Ang):
   XX=            -17.1102   YY=            -21.4558   ZZ=            -26.0159
   XY=             -2.8115   XZ=              1.0635   YZ=             -1.4009

 Normal termination of Gaussian 09 at Fri Apr 12 15:47:57 2019.
