 Gaussian 09, Revision D.01,
 Gaussian 09:  AS64L-G09RevD.01 24-Apr-2013

 --------------------------------------------------------------------
 #p hf 3-21g scf=tight NoSymmetry guess=read opt=(tight,modredundant)
 --------------------------------------------------------------------

 -----------------------------------
 Geometry optimization at the 2D-PES
 -----------------------------------
 Symbolic Z-matrix:
 Charge =  0 Multiplicity = 1

 SCF Done:  E(RHF) =  -226.380961066     A.U. after   13 cycles
 SCF Done:  E(RHF) =  -226.380986754     A.U. after   11 cycles
 SCF Done:  E(RHF) =  -226.380991619     A.U. after   10 cycles
 SCF Done:  E(RHF) =  -226.380991843     A.U. after    8 cycles
 SCF Done:  E(RHF) =  -226.380991876     A.U. after    7 cycles
 SCF Done:  E(RHF) =  -226.380991877     A.U. after    6 cycles
 Optimization completed.
    -- Stationary point found.

                          Input orientation:
 ---------------------------------------------------------------------
 Center     Atomic      Atomic             Coordinates (Angstroms)
 Number     Number       Type             X           Y           Z
 ---------------------------------------------------------------------
      1          6           0        0.763757    0.627420    0.058357
      2          6           0        1.385650   -0.522640    0.002916
      3          1           0        1.259346    1.578933    0.077318
      4          1           0        2.454893   -0.566403   -0.031374
      5          1           0        0.836495   -1.441248   -0.030721
      6          8           0       -0.637350    0.689797   -0.012496
      7          8           0       -1.177979    1.516194    1.085728
      8          1           0       -0.397493    1.812271    1.589301
 ---------------------------------------------------------------------

 Alpha  occ. eigenvalues --  -20.53466 -20.52304 -11.25327 -11.18935  -1.46950
 Alpha  occ. eigenvalues --   -1.23993  -1.04530  -0.81769  -0.71680  -0.67544
 Alpha  occ. eigenvalues --   -0.61546  -0.59389  -0.56024  -0.52871  -0.46113
 Alpha  occ. eigenvalues --   -0.38324
 Alpha virt. eigenvalues --    0.14523   0.25043   0.26625   0.30223   0.32443
 Alpha virt. eigenvalues --    0.35228   0.49369   0.55811   0.87909   0.96012
 Alpha virt. eigenvalues --    0.98769   1.06082   1.09350   1.11048   1.23960

 Mulliken charges:
               1
     1  C    0.083426
     2  C   -0.460981
     3  H    0.236084
     4  H    0.233115
     5  H    0.257156
     6  O   -0.374721
     7  O   -0.372789
     8  H    0.398710
 Sum of Mulliken charges =   0.00000

 Dipole moment (field-independent basis, Debye):
    X=              3.5662    Y=              0.3197    Z=              1.1407  Tot=              3.7578
 Quadrupole moment (field-independent basis, Debye-Ang):
   XX=            -25.2651   YY=            -20.0724   ZZ=            -22.8367
   XY=              3.1989   XZ=              1.1836   YZ=              2.8889

 Normal termination of Gaussian 09 at Fri Apr 12 16:06:34 2019.
