 Gaussian 09, Revision D.01,
 Gaussian 09:  AS64L-G09RevD.01 24-Apr-2013

 --------------------------------------------------------------------
 #p hf 3-21g scf=tight NoSymmetry guess=read opt=(tight,modredundant)
 --------------------------------------------------------------------

 -----------------------------------
 Geometry optimization at the 2D-PES
 -----------------------------------
 Symbolic Z-matrix:
 Charge =  0 Multiplicity = 1

 SCF Done:  E(RHF) =  -226.383186406     A.U. after   13 cycles
 SCF Done:  E(RHF) =  -226.383193132     A.U. after   12 cycles
 SCF Done:  E(RHF) =  -226.383199979     A.U. after   11 cycles
 SCF Done:  E(RHF) =  -226.383200015     A.U. after    9 cycles
 SCF Done:  E(RHF) =  -226.383200020     A.U. after    7 cycles
 Optimization completed.
    -- Stationary point found.

                          Input orientation:
 ---------------------------------------------------------------------
 Center     Atomic      Atomic             Coordinates (Angstroms)
 Number     Number       Type             X           Y           Z
 ---------------------------------------------------------------------
      1          6           0        0.749479    0.618533    0.040589
      2          6           0        1.389975   -0.521244   -0.008268
      3          1           0        1.229237    1.576217    0.085679
      4          1           0        2.460735   -0.551151   -0.008676
      5          1           0        0.855123   -1.447892   -0.058080
      6          8           0       -0.661473    0.679602   -0.007536
      7          8           0       -1.206292    0.612761    1.363029
      8          1           0       -0.594504    1.164016    1.885901
 ---------------------------------------------------------------------

 Alpha  occ. eigenvalues --  -20.52699 -20.51885 -11.24573 -11.19151  -1.46343
 Alpha  occ. eigenvalues --   -1.23143  -1.04447  -0.81134  -0.70286  -0.68597
 Alpha  occ. eigenvalues --   -0.60186  -0.58896  -0.57913  -0.50657  -0.44549
 Alpha  occ. eigenvalues --   -0.39625
 Alpha virt. eigenvalues --    0.13796   0.27150   0.27379   0.29582   0.31434
 Alpha virt. eigenvalues --    0.35930   0.49415   0.55543   0.87412   0.96380
 Alpha virt. eigenvalues --    0.98264   1.06171   1.09273   1.10484   1.24970

 Mulliken charges:
               1
     1  C    0.069170
     2  C   -0.437344
     3  H    0.234446
     4  H    0.231850
     5  H    0.260562
     6  O   -0.380070
     7  O   -0.374250
     8  H    0.395636
 Sum of Mulliken charges =   0.00000

 Dipole moment (field-independent basis, Debye):
    X=              3.3561    Y=              0.6318    Z=              1.2219  Tot=              3.6271
 Quadrupole moment (field-independent basis, Debye-Ang):
   XX=            -25.0081   YY=            -20.1532   ZZ=            -22.0485
   XY=              1.0277   XZ=              1.0152   YZ=              3.2079

 Normal termination of Gaussian 09 at Fri Apr 12 16:35:58 2019.
