 Gaussian 09, Revision D.01,
 Gaussian 09:  AS64L-G09RevD.01 24-Apr-2013

 --------------------------------------------------------------------
 #p hf 3-21g scf=tight NoSymmetry guess=read opt=(tight,modredundant)
 --------------------------------------------------------------------

 -----------------------------------
 Geometry optimization at the 2D-PES
 -----------------------------------
 Symbolic Z-matrix:
 Charge =  0 Multiplicity = 1

 SCF Done:  E(RHF) =  -226.381359560     A.U. after   13 cycles
 SCF Done:  E(RHF) =  -226.381361802     A.U. after   11 cycles
 SCF Done:  E(RHF) =  -226.381363936     A.U. after   10 cycles
 SCF Done:  E(RHF) =  -226.381363953     A.U. after    7 cycles
 SCF Done:  E(RHF) =  -226.381363955     A.U. after    7 cycles
 Optimization completed.
    -- Stationary point found.

                          Input orientation:
 ---------------------------------------------------------------------
 Center     Atomic      Atomic             Coordinates (Angstroms)
 Number     Number       Type             X           Y           Z
 ---------------------------------------------------------------------
      1          6           0        0.762926    0.626785    0.059627
      2          6           0        1.385786   -0.522186    0.002661
      3          1           0        1.262103    1.577115    0.078447
      4          1           0        2.454882   -0.565331   -0.035654
      5          1           0        0.836960   -1.441018   -0.026607
      6          8           0       -0.637611    0.692855   -0.012949
      7          8           0       -1.179710    1.516395    1.084078
      8          1           0       -0.429327    2.062104    1.384090
 ---------------------------------------------------------------------

 Alpha  occ. eigenvalues --  -20.53528 -20.52400 -11.25329 -11.18748  -1.47070
 Alpha  occ. eigenvalues --   -1.24016  -1.04419  -0.81827  -0.71270  -0.67979
 Alpha  occ. eigenvalues --   -0.61864  -0.58940  -0.56469  -0.52204  -0.46511
 Alpha  occ. eigenvalues --   -0.38182
 Alpha virt. eigenvalues --    0.14934   0.25083   0.25576   0.30358   0.33135
 Alpha virt. eigenvalues --    0.35170   0.49886   0.55839   0.88164   0.95908
 Alpha virt. eigenvalues --    0.99080   1.05930   1.09543   1.10945   1.23936

 Mulliken charges:
               1
     1  C    0.094758
     2  C   -0.461694
     3  H    0.227833
     4  H    0.232197
     5  H    0.257056
     6  O   -0.376523
     7  O   -0.370635
     8  H    0.397009
 Sum of Mulliken charges =   0.00000

 Dipole moment (field-independent basis, Debye):
    X=              3.4815    Y=              0.8132    Z=              0.7442  Tot=              3.6519
 Quadrupole moment (field-independent basis, Debye-Ang):
   XX=            -25.2385   YY=            -18.0602   ZZ=            -24.1661
   XY=              2.8522   XZ=              1.2337   YZ=              2.8459

 Normal termination of Gaussian 09 at Fri Apr 12 16:07:10 2019.
