 Gaussian 09, Revision D.01,
 Gaussian 09:  AS64L-G09RevD.01 24-Apr-2013

 --------------------------------------------------------------------
 #p hf 3-21g scf=tight NoSymmetry guess=read opt=(tight,modredundant)
 --------------------------------------------------------------------

 -----------------------------------
 Geometry optimization at the 2D-PES
 -----------------------------------
 Symbolic Z-matrix:
 Charge =  0 Multiplicity = 1

 SCF Done:  E(RHF) =  -226.393339449     A.U. after   13 cycles
 SCF Done:  E(RHF) =  -226.393350223     A.U. after   11 cycles
 SCF Done:  E(RHF) =  -226.393357221     A.U. after   10 cycles
 SCF Done:  E(RHF) =  -226.393357286     A.U. after    9 cycles
 SCF Done:  E(RHF) =  -226.393357291     A.U. after    7 cycles
 Optimization completed.
    -- Stationary point found.

                          Input orientation:
 ---------------------------------------------------------------------
 Center     Atomic      Atomic             Coordinates (Angstroms)
 Number     Number       Type             X           Y           Z
 ---------------------------------------------------------------------
      1          6           0        0.738725    0.636039    0.055864
      2          6           0        1.372909   -0.506724    0.001255
      3          1           0        1.212076    1.593316    0.114891
      4          1           0        2.442587   -0.536494   -0.024891
      5          1           0        0.837233   -1.433156   -0.031227
      6          8           0       -0.663631    0.679272   -0.014340
      7          8           0       -1.117542    1.691899    0.942857
      8          1           0       -1.279258    2.448997    0.352456
 ---------------------------------------------------------------------

 Alpha  occ. eigenvalues --  -20.53546 -20.52657 -11.24416 -11.17215  -1.47681
 Alpha  occ. eigenvalues --   -1.23821  -1.03206  -0.80114  -0.70116  -0.68691
 Alpha  occ. eigenvalues --   -0.65123  -0.56448  -0.55089  -0.51401  -0.48090
 Alpha  occ. eigenvalues --   -0.37033
 Alpha virt. eigenvalues --    0.17416   0.24400   0.27097   0.31612   0.33207
 Alpha virt. eigenvalues --    0.35593   0.49308   0.57041   0.89535   0.96915
 Alpha virt. eigenvalues --    0.99350   1.06662   1.10428   1.11784   1.23762

 Mulliken charges:
               1
     1  C    0.150287
     2  C   -0.485837
     3  H    0.234873
     4  H    0.227105
     5  H    0.247092
     6  O   -0.402235
     7  O   -0.378903
     8  H    0.407619
 Sum of Mulliken charges =   0.00000

 Dipole moment (field-independent basis, Debye):
    X=              1.5076    Y=              1.6515    Z=             -1.0191  Tot=              2.4574
 Quadrupole moment (field-independent basis, Debye-Ang):
   XX=            -22.2759   YY=            -15.0816   ZZ=            -27.3406
   XY=             -1.6194   XZ=              1.1907   YZ=             -1.3101

 Normal termination of Gaussian 09 at Fri Apr 12 16:03:06 2019.
