 Gaussian 09, Revision D.01,
 Gaussian 09:  AS64L-G09RevD.01 24-Apr-2013

 --------------------------------------------------------------------
 #p hf 3-21g scf=tight NoSymmetry guess=read opt=(tight,modredundant)
 --------------------------------------------------------------------

 -----------------------------------
 Geometry optimization at the 2D-PES
 -----------------------------------
 Symbolic Z-matrix:
 Charge =  0 Multiplicity = 1

 SCF Done:  E(RHF) =  -226.384095630     A.U. after   13 cycles
 SCF Done:  E(RHF) =  -226.384113331     A.U. after   12 cycles
 SCF Done:  E(RHF) =  -226.384125716     A.U. after   10 cycles
 SCF Done:  E(RHF) =  -226.384125912     A.U. after    9 cycles
 SCF Done:  E(RHF) =  -226.384125935     A.U. after    8 cycles
 SCF Done:  E(RHF) =  -226.384125938     A.U. after    8 cycles
 Optimization completed.
    -- Stationary point found.

                          Input orientation:
 ---------------------------------------------------------------------
 Center     Atomic      Atomic             Coordinates (Angstroms)
 Number     Number       Type             X           Y           Z
 ---------------------------------------------------------------------
      1          6           0        0.737317    0.631759    0.035220
      2          6           0        1.384434   -0.506704   -0.011873
      3          1           0        1.204943    1.593634    0.074560
      4          1           0        2.454856   -0.530799    0.012606
      5          1           0        0.856927   -1.439028   -0.044496
      6          8           0       -0.672900    0.656689    0.040415
      7          8           0       -1.148488    0.962641   -1.325901
      8          1           0       -0.452561    0.588823   -1.899029
 ---------------------------------------------------------------------

 Alpha  occ. eigenvalues --  -20.52937 -20.51952 -11.25120 -11.19636  -1.46596
 Alpha  occ. eigenvalues --   -1.23384  -1.04960  -0.81100  -0.72305  -0.66846
 Alpha  occ. eigenvalues --   -0.61729  -0.59375  -0.56337  -0.52244  -0.44374
 Alpha  occ. eigenvalues --   -0.40080
 Alpha virt. eigenvalues --    0.13963   0.26364   0.27204   0.29779   0.30610
 Alpha virt. eigenvalues --    0.35907   0.48795   0.55175   0.87662   0.96742
 Alpha virt. eigenvalues --    0.97521   1.04949   1.08459   1.10942   1.23573

 Mulliken charges:
               1
     1  C    0.073844
     2  C   -0.454719
     3  H    0.246704
     4  H    0.236305
     5  H    0.254683
     6  O   -0.378370
     7  O   -0.375844
     8  H    0.397397
 Sum of Mulliken charges =   0.00000

 Dipole moment (field-independent basis, Debye):
    X=              3.5112    Y=             -1.0034    Z=             -1.2342  Tot=              3.8546
 Quadrupole moment (field-independent basis, Debye-Ang):
   XX=            -25.0898   YY=            -23.2243   ZZ=            -21.7247
   XY=              2.7127   XZ=             -1.1382   YZ=              0.4349

 Normal termination of Gaussian 09 at Fri Apr 12 15:09:18 2019.
