 Gaussian 09, Revision D.01,
 Gaussian 09:  AS64L-G09RevD.01 24-Apr-2013

 --------------------------------------------------------------------
 #p hf 3-21g scf=tight NoSymmetry guess=read opt=(tight,modredundant)
 --------------------------------------------------------------------

 -----------------------------------
 Geometry optimization at the 2D-PES
 -----------------------------------
 Symbolic Z-matrix:
 Charge =  0 Multiplicity = 1

 SCF Done:  E(RHF) =  -226.395628249     A.U. after   14 cycles
 SCF Done:  E(RHF) =  -226.395636929     A.U. after   11 cycles
 SCF Done:  E(RHF) =  -226.395637719     A.U. after   10 cycles
 SCF Done:  E(RHF) =  -226.395637901     A.U. after    9 cycles
 SCF Done:  E(RHF) =  -226.395637909     A.U. after    7 cycles
 SCF Done:  E(RHF) =  -226.395637910     A.U. after    6 cycles
 Optimization completed.
    -- Stationary point found.

                          Input orientation:
 ---------------------------------------------------------------------
 Center     Atomic      Atomic             Coordinates (Angstroms)
 Number     Number       Type             X           Y           Z
 ---------------------------------------------------------------------
      1          6           0        0.725731    0.634356    0.054672
      2          6           0        1.368531   -0.504665    0.003632
      3          1           0        1.184729    1.597082    0.117775
      4          1           0        2.438576   -0.524404   -0.015212
      5          1           0        0.844030   -1.437236   -0.040486
      6          8           0       -0.672791    0.671035   -0.019265
      7          8           0       -1.095501    1.695034    0.950193
      8          1           0       -1.961855    1.330766    1.197496
 ---------------------------------------------------------------------

 Alpha  occ. eigenvalues --  -20.53180 -20.52183 -11.24113 -11.16918  -1.47112
 Alpha  occ. eigenvalues --   -1.23715  -1.02846  -0.79634  -0.70553  -0.67112
 Alpha  occ. eigenvalues --   -0.62754  -0.60678  -0.55610  -0.49978  -0.46762
 Alpha  occ. eigenvalues --   -0.36806
 Alpha virt. eigenvalues --    0.17599   0.25037   0.28093   0.31733   0.33167
 Alpha virt. eigenvalues --    0.36024   0.49740   0.57311   0.89937   0.97299
 Alpha virt. eigenvalues --    0.99749   1.07169   1.10687   1.12596   1.22776

 Mulliken charges:
               1
     1  C    0.165133
     2  C   -0.493342
     3  H    0.254496
     4  H    0.226877
     5  H    0.238116
     6  O   -0.418084
     7  O   -0.393332
     8  H    0.420136
 Sum of Mulliken charges =   0.00000

 Dipole moment (field-independent basis, Debye):
    X=             -0.0081    Y=             -0.5782    Z=              0.7808  Tot=              0.9716
 Quadrupole moment (field-independent basis, Debye-Ang):
   XX=            -17.1386   YY=            -24.2659   ZZ=            -24.5067
   XY=             -0.2962   XZ=             -3.1583   YZ=              0.3589

 Normal termination of Gaussian 09 at Fri Apr 12 16:00:28 2019.
