 Gaussian 09, Revision D.01,
 Gaussian 09:  AS64L-G09RevD.01 24-Apr-2013

 --------------------------------------------------------------------
 #p hf 3-21g scf=tight NoSymmetry guess=read opt=(tight,modredundant)
 --------------------------------------------------------------------

 -----------------------------------
 Geometry optimization at the 2D-PES
 -----------------------------------
 Symbolic Z-matrix:
 Charge =  0 Multiplicity = 1

 SCF Done:  E(RHF) =  -226.389356927     A.U. after   13 cycles
 SCF Done:  E(RHF) =  -226.389367087     A.U. after   11 cycles
 SCF Done:  E(RHF) =  -226.389373677     A.U. after   10 cycles
 SCF Done:  E(RHF) =  -226.389373728     A.U. after    9 cycles
 SCF Done:  E(RHF) =  -226.389373733     A.U. after    7 cycles
 Optimization completed.
    -- Stationary point found.

                          Input orientation:
 ---------------------------------------------------------------------
 Center     Atomic      Atomic             Coordinates (Angstroms)
 Number     Number       Type             X           Y           Z
 ---------------------------------------------------------------------
      1          6           0        0.734490    0.606667    0.048159
      2          6           0        1.394069   -0.521489   -0.016089
      3          1           0        1.202332    1.566644    0.106405
      4          1           0        2.464630   -0.526778   -0.008325
      5          1           0        0.896498   -1.468908   -0.075591
      6          8           0       -0.674480    0.685192    0.007357
      7          8           0       -1.217108    0.138679    1.258836
      8          1           0       -1.475840   -0.754579    0.974046
 ---------------------------------------------------------------------

 Alpha  occ. eigenvalues --  -20.52731 -20.52201 -11.24340 -11.18257  -1.46782
 Alpha  occ. eigenvalues --   -1.23206  -1.04003  -0.79657  -0.71187  -0.67016
 Alpha  occ. eigenvalues --   -0.65165  -0.58275  -0.55555  -0.48453  -0.47479
 Alpha  occ. eigenvalues --   -0.38431
 Alpha virt. eigenvalues --    0.15100   0.24555   0.28911   0.30084   0.32511
 Alpha virt. eigenvalues --    0.36644   0.49832   0.56374   0.88256   0.96716
 Alpha virt. eigenvalues --    0.97697   1.06237   1.09296   1.11868   1.24981

 Mulliken charges:
               1
     1  C    0.138226
     2  C   -0.466787
     3  H    0.247863
     4  H    0.233408
     5  H    0.224036
     6  O   -0.407682
     7  O   -0.375655
     8  H    0.406590
 Sum of Mulliken charges =   0.00000

 Dipole moment (field-independent basis, Debye):
    X=              1.4576    Y=             -2.0563    Z=             -0.2931  Tot=              2.5375
 Quadrupole moment (field-independent basis, Debye-Ang):
   XX=            -21.3640   YY=            -20.9470   ZZ=            -26.9749
   XY=              4.2055   XZ=              0.1374   YZ=             -1.5398

 Normal termination of Gaussian 09 at Fri Apr 12 16:55:57 2019.
