 Gaussian 09, Revision D.01,
 Gaussian 09:  AS64L-G09RevD.01 24-Apr-2013

 --------------------------------------------------------------------
 #p hf 3-21g scf=tight NoSymmetry guess=read opt=(tight,modredundant)
 --------------------------------------------------------------------

 -----------------------------------
 Geometry optimization at the 2D-PES
 -----------------------------------
 Symbolic Z-matrix:
 Charge =  0 Multiplicity = 1

 SCF Done:  E(RHF) =  -226.384712243     A.U. after   12 cycles
 SCF Done:  E(RHF) =  -226.384735232     A.U. after   13 cycles
 SCF Done:  E(RHF) =  -226.384755648     A.U. after   12 cycles
 SCF Done:  E(RHF) =  -226.384755825     A.U. after    9 cycles
 SCF Done:  E(RHF) =  -226.384755860     A.U. after    9 cycles
 SCF Done:  E(RHF) =  -226.384755861     A.U. after    7 cycles
 Optimization completed.
    -- Stationary point found.

                          Input orientation:
 ---------------------------------------------------------------------
 Center     Atomic      Atomic             Coordinates (Angstroms)
 Number     Number       Type             X           Y           Z
 ---------------------------------------------------------------------
      1          6           0        0.756434    0.632320    0.061672
      2          6           0        1.379757   -0.516152    0.002741
      3          1           0        1.258238    1.579276    0.097198
      4          1           0        2.448876   -0.555436   -0.028127
      5          1           0        0.835259   -1.437460   -0.026091
      6          8           0       -0.642954    0.696705   -0.015232
      7          8           0       -1.143102    1.847733    0.741656
      8          1           0       -0.599390    2.590455    0.418979
 ---------------------------------------------------------------------

 Alpha  occ. eigenvalues --  -20.54007 -20.53047 -11.25403 -11.17780  -1.47975
 Alpha  occ. eigenvalues --   -1.24298  -1.03965  -0.81580  -0.71128  -0.68060
 Alpha  occ. eigenvalues --   -0.64330  -0.57486  -0.56058  -0.51811  -0.48609
 Alpha  occ. eigenvalues --   -0.37157
 Alpha virt. eigenvalues --    0.17240   0.23113   0.24436   0.31073   0.34192
 Alpha virt. eigenvalues --    0.35395   0.50617   0.56449   0.89000   0.96094
 Alpha virt. eigenvalues --    0.99099   1.05722   1.09963   1.11046   1.24169

 Mulliken charges:
               1
     1  C    0.133080
     2  C   -0.484154
     3  H    0.222567
     4  H    0.229977
     5  H    0.251362
     6  O   -0.385584
     7  O   -0.365139
     8  H    0.397891
 Sum of Mulliken charges =   0.00000

 Dipole moment (field-independent basis, Debye):
    X=              2.9197    Y=              1.4858    Z=             -0.4871  Tot=              3.3120
 Quadrupole moment (field-independent basis, Debye-Ang):
   XX=            -24.9120   YY=            -15.0284   ZZ=            -26.5635
   XY=              2.2242   XZ=              1.0641   YZ=             -0.3323

 Normal termination of Gaussian 09 at Fri Apr 12 15:56:03 2019.
