 Gaussian 09, Revision D.01,
 Gaussian 09:  AS64L-G09RevD.01 24-Apr-2013

 --------------------------------------------------------------------
 #p hf 3-21g scf=tight NoSymmetry guess=read opt=(tight,modredundant)
 --------------------------------------------------------------------

 -----------------------------------
 Geometry optimization at the 2D-PES
 -----------------------------------
 Symbolic Z-matrix:
 Charge =  0 Multiplicity = 1

 SCF Done:  E(RHF) =  -226.383214261     A.U. after   13 cycles
 SCF Done:  E(RHF) =  -226.383221372     A.U. after   12 cycles
 SCF Done:  E(RHF) =  -226.383230050     A.U. after   11 cycles
 SCF Done:  E(RHF) =  -226.383230092     A.U. after    9 cycles
 SCF Done:  E(RHF) =  -226.383230098     A.U. after    7 cycles
 Optimization completed.
    -- Stationary point found.

                          Input orientation:
 ---------------------------------------------------------------------
 Center     Atomic      Atomic             Coordinates (Angstroms)
 Number     Number       Type             X           Y           Z
 ---------------------------------------------------------------------
      1          6           0        0.749218    0.615497    0.040018
      2          6           0        1.395463   -0.521169   -0.013991
      3          1           0        1.223153    1.575599    0.081248
      4          1           0        2.466365   -0.544696   -0.012184
      5          1           0        0.866703   -1.451498   -0.063208
      6          8           0       -0.662689    0.680317    0.000777
      7          8           0       -1.213924    0.374106    1.335186
      8          1           0       -0.604738    0.827491    1.947307
 ---------------------------------------------------------------------

 Alpha  occ. eigenvalues --  -20.52652 -20.51899 -11.24573 -11.19134  -1.46343
 Alpha  occ. eigenvalues --   -1.23088  -1.04505  -0.81043  -0.70286  -0.68605
 Alpha  occ. eigenvalues --   -0.59718  -0.59303  -0.57986  -0.50710  -0.44580
 Alpha  occ. eigenvalues --   -0.39533
 Alpha virt. eigenvalues --    0.13766   0.27143   0.27668   0.29283   0.31224
 Alpha virt. eigenvalues --    0.36256   0.49495   0.55513   0.87303   0.96539
 Alpha virt. eigenvalues --    0.98013   1.05994   1.09137   1.10536   1.24802

 Mulliken charges:
               1
     1  C    0.066197
     2  C   -0.439313
     3  H    0.238976
     4  H    0.232073
     5  H    0.260777
     6  O   -0.381048
     7  O   -0.373934
     8  H    0.396272
 Sum of Mulliken charges =   0.00000

 Dipole moment (field-independent basis, Debye):
    X=              3.3489    Y=              0.4421    Z=              1.4001  Tot=              3.6566
 Quadrupole moment (field-independent basis, Debye-Ang):
   XX=            -25.0310   YY=            -21.0734   ZZ=            -21.3499
   XY=              0.8776   XZ=              0.8580   YZ=              2.6820

 Normal termination of Gaussian 09 at Fri Apr 12 16:48:18 2019.
