 Gaussian 09, Revision D.01,
 Gaussian 09:  AS64L-G09RevD.01 24-Apr-2013

 --------------------------------------------------------------------
 #p hf 3-21g scf=tight NoSymmetry guess=read opt=(tight,modredundant)
 --------------------------------------------------------------------

 -----------------------------------
 Geometry optimization at the 2D-PES
 -----------------------------------
 Symbolic Z-matrix:
 Charge =  0 Multiplicity = 1

 SCF Done:  E(RHF) =  -226.398057231     A.U. after   13 cycles
 SCF Done:  E(RHF) =  -226.398058133     A.U. after   11 cycles
 SCF Done:  E(RHF) =  -226.398059386     A.U. after   10 cycles
 SCF Done:  E(RHF) =  -226.398059406     A.U. after    8 cycles
 SCF Done:  E(RHF) =  -226.398059408     A.U. after    6 cycles
 Optimization completed.
    -- Stationary point found.

                          Input orientation:
 ---------------------------------------------------------------------
 Center     Atomic      Atomic             Coordinates (Angstroms)
 Number     Number       Type             X           Y           Z
 ---------------------------------------------------------------------
      1          6           0        0.731255    0.571834    0.043258
      2          6           0        1.417338   -0.538364   -0.048327
      3          1           0        1.165896    1.548868    0.094929
      4          1           0        2.486912   -0.500170   -0.057787
      5          1           0        0.941412   -1.492653   -0.101052
      6          8           0       -0.653746    0.711803    0.049338
      7          8           0       -1.267376   -0.611089    0.175282
      8          1           0       -2.185830   -0.335178    0.330389
 ---------------------------------------------------------------------

 Alpha  occ. eigenvalues --  -20.53814 -20.52645 -11.24141 -11.15607  -1.47798
 Alpha  occ. eigenvalues --   -1.24070  -1.02636  -0.79050  -0.71930  -0.64922
 Alpha  occ. eigenvalues --   -0.63802  -0.61973  -0.53606  -0.50643  -0.48247
 Alpha  occ. eigenvalues --   -0.35401
 Alpha virt. eigenvalues --    0.20153   0.23067   0.28583   0.30606   0.34344
 Alpha virt. eigenvalues --    0.37447   0.50263   0.59250   0.89445   0.97582
 Alpha virt. eigenvalues --    1.00766   1.07702   1.10791   1.12790   1.24194

 Mulliken charges:
               1
     1  C    0.158670
     2  C   -0.506859
     3  H    0.257067
     4  H    0.217959
     5  H    0.255537
     6  O   -0.422998
     7  O   -0.384387
     8  H    0.425011
 Sum of Mulliken charges =   0.00000

 Dipole moment (field-independent basis, Debye):
    X=             -0.4081    Y=              0.3608    Z=              0.3831  Tot=              0.6659
 Quadrupole moment (field-independent basis, Debye-Ang):
   XX=            -16.0566   YY=            -22.9239   ZZ=            -25.6440
   XY=              1.6075   XZ=             -1.1134   YZ=              0.2188

 Normal termination of Gaussian 09 at Fri Apr 12 17:49:11 2019.
