 Gaussian 09, Revision D.01,
 Gaussian 09:  AS64L-G09RevD.01 24-Apr-2013

 --------------------------------------------------------------------
 #p hf 3-21g scf=tight NoSymmetry guess=read opt=(tight,modredundant)
 --------------------------------------------------------------------

 -----------------------------------
 Geometry optimization at the 2D-PES
 -----------------------------------
 Symbolic Z-matrix:
 Charge =  0 Multiplicity = 1

 SCF Done:  E(RHF) =  -226.391818750     A.U. after   12 cycles
 SCF Done:  E(RHF) =  -226.391834045     A.U. after   11 cycles
 SCF Done:  E(RHF) =  -226.391843408     A.U. after   10 cycles
 SCF Done:  E(RHF) =  -226.391843505     A.U. after    9 cycles
 SCF Done:  E(RHF) =  -226.391843518     A.U. after    8 cycles
 SCF Done:  E(RHF) =  -226.391843519     A.U. after    7 cycles
 Optimization completed.
    -- Stationary point found.

                          Input orientation:
 ---------------------------------------------------------------------
 Center     Atomic      Atomic             Coordinates (Angstroms)
 Number     Number       Type             X           Y           Z
 ---------------------------------------------------------------------
      1          6           0        0.740152    0.633334    0.056190
      2          6           0        1.374078   -0.509241    0.003628
      3          1           0        1.218535    1.589253    0.115751
      4          1           0        2.443913   -0.541972   -0.018426
      5          1           0        0.835424   -1.433738   -0.033722
      6          8           0       -0.663398    0.679002   -0.019341
      7          8           0       -1.137951    1.507279    1.094848
      8          1           0       -1.146600    2.393957    0.691159
 ---------------------------------------------------------------------

 Alpha  occ. eigenvalues --  -20.53404 -20.52493 -11.24438 -11.17602  -1.47450
 Alpha  occ. eigenvalues --   -1.23670  -1.03421  -0.80330  -0.69720  -0.68978
 Alpha  occ. eigenvalues --   -0.64775  -0.56726  -0.55801  -0.49994  -0.48096
 Alpha  occ. eigenvalues --   -0.37594
 Alpha virt. eigenvalues --    0.16737   0.24860   0.26856   0.31338   0.33232
 Alpha virt. eigenvalues --    0.35490   0.49314   0.56743   0.89130   0.96849
 Alpha virt. eigenvalues --    0.98904   1.06593   1.10130   1.11466   1.24520

 Mulliken charges:
               1
     1  C    0.141358
     2  C   -0.474510
     3  H    0.227005
     4  H    0.227700
     5  H    0.250101
     6  O   -0.397432
     7  O   -0.377709
     8  H    0.403487
 Sum of Mulliken charges =   0.00000

 Dipole moment (field-independent basis, Debye):
    X=              1.8863    Y=              1.7490    Z=             -0.6099  Tot=              2.6437
 Quadrupole moment (field-independent basis, Debye-Ang):
   XX=            -23.0050   YY=            -14.5488   ZZ=            -27.2612
   XY=             -1.1983   XZ=              0.8289   YZ=              0.2994

 Normal termination of Gaussian 09 at Fri Apr 12 16:09:34 2019.
