 Gaussian 09, Revision D.01,
 Gaussian 09:  AS64L-G09RevD.01 24-Apr-2013

 --------------------------------------------------------------------
 #p hf 3-21g scf=tight NoSymmetry guess=read opt=(tight,modredundant)
 --------------------------------------------------------------------

 -----------------------------------
 Geometry optimization at the 2D-PES
 -----------------------------------
 Symbolic Z-matrix:
 Charge =  0 Multiplicity = 1

 SCF Done:  E(RHF) =  -226.389614081     A.U. after   12 cycles
 SCF Done:  E(RHF) =  -226.389627868     A.U. after   11 cycles
 SCF Done:  E(RHF) =  -226.389637474     A.U. after   10 cycles
 SCF Done:  E(RHF) =  -226.389637550     A.U. after    9 cycles
 SCF Done:  E(RHF) =  -226.389637556     A.U. after    8 cycles
 SCF Done:  E(RHF) =  -226.389637556     A.U. after    6 cycles
 Optimization completed.
    -- Stationary point found.

                          Input orientation:
 ---------------------------------------------------------------------
 Center     Atomic      Atomic             Coordinates (Angstroms)
 Number     Number       Type             X           Y           Z
 ---------------------------------------------------------------------
      1          6           0        0.736724    0.597894    0.058033
      2          6           0        1.404998   -0.523983   -0.023338
      3          1           0        1.198418    1.561922    0.099308
      4          1           0        2.475391   -0.516846   -0.030330
      5          1           0        0.919545   -1.478212   -0.063175
      6          8           0       -0.669035    0.692365    0.025129
      7          8           0       -1.240098   -0.068440    1.141733
      8          1           0       -1.504844   -0.890407    0.694159
 ---------------------------------------------------------------------

 Alpha  occ. eigenvalues --  -20.52953 -20.52428 -11.24423 -11.17989  -1.47054
 Alpha  occ. eigenvalues --   -1.23400  -1.03963  -0.79645  -0.71059  -0.67660
 Alpha  occ. eigenvalues --   -0.65317  -0.57830  -0.55215  -0.49366  -0.47794
 Alpha  occ. eigenvalues --   -0.37922
 Alpha virt. eigenvalues --    0.15486   0.24228   0.28902   0.29703   0.32916
 Alpha virt. eigenvalues --    0.36836   0.49987   0.56702   0.88321   0.96680
 Alpha virt. eigenvalues --    0.98035   1.06289   1.09409   1.11871   1.24843

 Mulliken charges:
               1
     1  C    0.141478
     2  C   -0.472586
     3  H    0.251223
     4  H    0.232732
     5  H    0.220970
     6  O   -0.408456
     7  O   -0.373311
     8  H    0.407950
 Sum of Mulliken charges =   0.00000

 Dipole moment (field-independent basis, Debye):
    X=              1.3722    Y=             -1.9070    Z=             -0.6455  Tot=              2.4365
 Quadrupole moment (field-independent basis, Debye-Ang):
   XX=            -21.3092   YY=            -20.5106   ZZ=            -27.3742
   XY=              4.2427   XZ=              0.7486   YZ=             -0.7697

 Normal termination of Gaussian 09 at Fri Apr 12 16:57:58 2019.
