 Gaussian 09, Revision D.01,
 Gaussian 09:  AS64L-G09RevD.01 24-Apr-2013

 --------------------------------------------------------------------
 #p hf 3-21g scf=tight NoSymmetry guess=read opt=(tight,modredundant)
 --------------------------------------------------------------------

 -----------------------------------
 Geometry optimization at the 2D-PES
 -----------------------------------
 Symbolic Z-matrix:
 Charge =  0 Multiplicity = 1

 SCF Done:  E(RHF) =  -226.385876843     A.U. after   13 cycles
 SCF Done:  E(RHF) =  -226.385885543     A.U. after   12 cycles
 SCF Done:  E(RHF) =  -226.385894151     A.U. after   10 cycles
 SCF Done:  E(RHF) =  -226.385894183     A.U. after    9 cycles
 SCF Done:  E(RHF) =  -226.385894189     A.U. after    7 cycles
 SCF Done:  E(RHF) =  -226.385894189     A.U. after    7 cycles
 Optimization completed.
    -- Stationary point found.

                          Input orientation:
 ---------------------------------------------------------------------
 Center     Atomic      Atomic             Coordinates (Angstroms)
 Number     Number       Type             X           Y           Z
 ---------------------------------------------------------------------
      1          6           0        0.745085    0.619509    0.042661
      2          6           0        1.386312   -0.519068   -0.006481
      3          1           0        1.224015    1.577246    0.094440
      4          1           0        2.457039   -0.548645   -0.003967
      5          1           0        0.851943   -1.445815   -0.056905
      6          8           0       -0.666504    0.678834   -0.010099
      7          8           0       -1.198046    0.607448    1.361592
      8          1           0       -0.803253    1.387805    1.793491
 ---------------------------------------------------------------------

 Alpha  occ. eigenvalues --  -20.52699 -20.51946 -11.24287 -11.18720  -1.46498
 Alpha  occ. eigenvalues --   -1.23047  -1.04078  -0.80781  -0.69601  -0.68934
 Alpha  occ. eigenvalues --   -0.61497  -0.58710  -0.57279  -0.49262  -0.45413
 Alpha  occ. eigenvalues --   -0.39303
 Alpha virt. eigenvalues --    0.14324   0.26628   0.27838   0.30007   0.31808
 Alpha virt. eigenvalues --    0.35949   0.49443   0.55885   0.87840   0.96548
 Alpha virt. eigenvalues --    0.98499   1.06185   1.09434   1.10577   1.25398

 Mulliken charges:
               1
     1  C    0.085570
     2  C   -0.439006
     3  H    0.229643
     4  H    0.229898
     5  H    0.258704
     6  O   -0.385706
     7  O   -0.375286
     8  H    0.396183
 Sum of Mulliken charges =   0.00000

 Dipole moment (field-independent basis, Debye):
    X=              2.8982    Y=              1.1216    Z=              1.0822  Tot=              3.2907
 Quadrupole moment (field-independent basis, Debye-Ang):
   XX=            -24.4668   YY=            -18.9023   ZZ=            -22.7695
   XY=              0.1223   XZ=              0.3178   YZ=              3.8902

 Normal termination of Gaussian 09 at Fri Apr 12 16:36:32 2019.
