 Gaussian 09, Revision D.01,
 Gaussian 09:  AS64L-G09RevD.01 24-Apr-2013

 --------------------------------------------------------------------
 #p hf 3-21g scf=tight NoSymmetry guess=read opt=(tight,modredundant)
 --------------------------------------------------------------------

 -----------------------------------
 Geometry optimization at the 2D-PES
 -----------------------------------
 Symbolic Z-matrix:
 Charge =  0 Multiplicity = 1

 SCF Done:  E(RHF) =  -226.386360639     A.U. after   13 cycles
 SCF Done:  E(RHF) =  -226.386380303     A.U. after   13 cycles
 SCF Done:  E(RHF) =  -226.386394502     A.U. after   10 cycles
 SCF Done:  E(RHF) =  -226.386394674     A.U. after    9 cycles
 SCF Done:  E(RHF) =  -226.386394701     A.U. after    9 cycles
 SCF Done:  E(RHF) =  -226.386394703     A.U. after    8 cycles
 Optimization completed.
    -- Stationary point found.

                          Input orientation:
 ---------------------------------------------------------------------
 Center     Atomic      Atomic             Coordinates (Angstroms)
 Number     Number       Type             X           Y           Z
 ---------------------------------------------------------------------
      1          6           0        0.739570    0.636047    0.026721
      2          6           0        1.380024   -0.505370   -0.016150
      3          1           0        1.206385    1.597840    0.078377
      4          1           0        2.449608   -0.535322    0.025542
      5          1           0        0.847351   -1.433520   -0.064774
      6          8           0       -0.668120    0.661482    0.044832
      7          8           0       -1.129942    1.406998   -1.140566
      8          1           0       -0.524225    1.109967   -1.845792
 ---------------------------------------------------------------------

 Alpha  occ. eigenvalues --  -20.53319 -20.52235 -11.25001 -11.19129  -1.47088
 Alpha  occ. eigenvalues --   -1.23619  -1.04577  -0.81060  -0.72389  -0.66483
 Alpha  occ. eigenvalues --   -0.62597  -0.59568  -0.55913  -0.51966  -0.45603
 Alpha  occ. eigenvalues --   -0.39179
 Alpha virt. eigenvalues --    0.14643   0.25932   0.27297   0.30203   0.31257
 Alpha virt. eigenvalues --    0.35585   0.48630   0.55803   0.88048   0.96661
 Alpha virt. eigenvalues --    0.97770   1.05769   1.09005   1.10689   1.24301

 Mulliken charges:
               1
     1  C    0.081812
     2  C   -0.461934
     3  H    0.248421
     4  H    0.234290
     5  H    0.253221
     6  O   -0.378043
     7  O   -0.376766
     8  H    0.398999
 Sum of Mulliken charges =   0.00000

 Dipole moment (field-independent basis, Debye):
    X=              3.2537    Y=             -0.7748    Z=             -1.5039  Tot=              3.6672
 Quadrupole moment (field-independent basis, Debye-Ang):
   XX=            -24.9465   YY=            -23.5712   ZZ=            -21.1614
   XY=              3.0954   XZ=             -0.3890   YZ=             -0.7912

 Normal termination of Gaussian 09 at Fri Apr 12 15:16:30 2019.
