 Gaussian 09, Revision D.01,
 Gaussian 09:  AS64L-G09RevD.01 24-Apr-2013

 --------------------------------------------------------------------
 #p hf 3-21g scf=tight NoSymmetry guess=read opt=(tight,modredundant)
 --------------------------------------------------------------------

 -----------------------------------
 Geometry optimization at the 2D-PES
 -----------------------------------
 Symbolic Z-matrix:
 Charge =  0 Multiplicity = 1

 SCF Done:  E(RHF) =  -226.394551289     A.U. after   13 cycles
 SCF Done:  E(RHF) =  -226.394559648     A.U. after   11 cycles
 SCF Done:  E(RHF) =  -226.394568155     A.U. after   10 cycles
 SCF Done:  E(RHF) =  -226.394568201     A.U. after    7 cycles
 SCF Done:  E(RHF) =  -226.394568202     A.U. after    7 cycles
 Optimization completed.
    -- Stationary point found.

                          Input orientation:
 ---------------------------------------------------------------------
 Center     Atomic      Atomic             Coordinates (Angstroms)
 Number     Number       Type             X           Y           Z
 ---------------------------------------------------------------------
      1          6           0        0.734969    0.636469    0.043451
      2          6           0        1.370772   -0.506586   -0.006477
      3          1           0        1.198263    1.596435    0.109465
      4          1           0        2.440705   -0.528675   -0.004219
      5          1           0        0.844973   -1.438334   -0.051110
      6          8           0       -0.667260    0.681131    0.006380
      7          8           0       -1.073359    2.049482    0.318610
      8          1           0       -1.407713    2.340600   -0.547408
 ---------------------------------------------------------------------

 Alpha  occ. eigenvalues --  -20.53871 -20.53166 -11.24471 -11.16506  -1.48233
 Alpha  occ. eigenvalues --   -1.24141  -1.02910  -0.79970  -0.71426  -0.67429
 Alpha  occ. eigenvalues --   -0.65197  -0.56835  -0.54920  -0.52519  -0.48639
 Alpha  occ. eigenvalues --   -0.36068
 Alpha virt. eigenvalues --    0.19170   0.22320   0.27389   0.31973   0.33786
 Alpha virt. eigenvalues --    0.35782   0.49613   0.57588   0.90176   0.96878
 Alpha virt. eigenvalues --    1.00162   1.06233   1.10803   1.12195   1.22939

 Mulliken charges:
               1
     1  C    0.154394
     2  C   -0.507774
     3  H    0.256778
     4  H    0.226649
     5  H    0.240485
     6  O   -0.407355
     7  O   -0.377679
     8  H    0.414502
 Sum of Mulliken charges =   0.00000

 Dipole moment (field-independent basis, Debye):
    X=              1.0090    Y=              1.0330    Z=             -1.7308  Tot=              2.2540
 Quadrupole moment (field-independent basis, Debye-Ang):
   XX=            -21.4215   YY=            -18.7753   ZZ=            -25.2093
   XY=             -1.1769   XZ=              2.5724   YZ=             -4.0076

 Normal termination of Gaussian 09 at Fri Apr 12 15:46:32 2019.
