 Gaussian 09, Revision D.01,
 Gaussian 09:  AS64L-G09RevD.01 24-Apr-2013

 --------------------------------------------------------------------
 #p hf 3-21g scf=tight NoSymmetry guess=read opt=(tight,modredundant)
 --------------------------------------------------------------------

 -----------------------------------
 Geometry optimization at the 2D-PES
 -----------------------------------
 Symbolic Z-matrix:
 Charge =  0 Multiplicity = 1

 SCF Done:  E(RHF) =  -226.395287927     A.U. after   13 cycles
 SCF Done:  E(RHF) =  -226.395293668     A.U. after   11 cycles
 SCF Done:  E(RHF) =  -226.395296382     A.U. after   10 cycles
 SCF Done:  E(RHF) =  -226.395296435     A.U. after    8 cycles
 SCF Done:  E(RHF) =  -226.395296439     A.U. after    7 cycles
 Optimization completed.
    -- Stationary point found.

                          Input orientation:
 ---------------------------------------------------------------------
 Center     Atomic      Atomic             Coordinates (Angstroms)
 Number     Number       Type             X           Y           Z
 ---------------------------------------------------------------------
      1          6           0        0.725537    0.639203    0.020209
      2          6           0        1.367700   -0.500562   -0.024093
      3          1           0        1.183851    1.602802    0.067783
      4          1           0        2.436895   -0.524171    0.022212
      5          1           0        0.843236   -1.432438   -0.084124
      6          8           0       -0.677651    0.669008    0.056078
      7          8           0       -1.086423    1.779859   -0.813211
      8          1           0       -1.621510    1.299768   -1.468180
 ---------------------------------------------------------------------

 Alpha  occ. eigenvalues --  -20.53370 -20.52400 -11.24254 -11.17179  -1.47428
 Alpha  occ. eigenvalues --   -1.23731  -1.03113  -0.79745  -0.71537  -0.66377
 Alpha  occ. eigenvalues --   -0.62561  -0.61411  -0.55573  -0.49029  -0.47745
 Alpha  occ. eigenvalues --   -0.37254
 Alpha virt. eigenvalues --    0.17443   0.24735   0.27875   0.31477   0.33169
 Alpha virt. eigenvalues --    0.35872   0.49424   0.57121   0.89801   0.96870
 Alpha virt. eigenvalues --    0.99637   1.06735   1.10504   1.12629   1.22093

 Mulliken charges:
               1
     1  C    0.152624
     2  C   -0.493197
     3  H    0.255558
     4  H    0.228088
     5  H    0.238549
     6  O   -0.408963
     7  O   -0.388389
     8  H    0.415730
 Sum of Mulliken charges =   0.00000

 Dipole moment (field-independent basis, Debye):
    X=              0.7164    Y=             -0.8027    Z=             -1.5609  Tot=              1.8958
 Quadrupole moment (field-independent basis, Debye-Ang):
   XX=            -19.9593   YY=            -25.0146   ZZ=            -22.3299
   XY=              0.9610   XZ=              3.7696   YZ=             -0.9194

 Normal termination of Gaussian 09 at Fri Apr 12 15:22:04 2019.
