 Gaussian 09, Revision D.01,
 Gaussian 09:  AS64L-G09RevD.01 24-Apr-2013

 --------------------------------------------------------------------
 #p hf 3-21g scf=tight NoSymmetry guess=read opt=(tight,modredundant)
 --------------------------------------------------------------------

 -----------------------------------
 Geometry optimization at the 2D-PES
 -----------------------------------
 Symbolic Z-matrix:
 Charge =  0 Multiplicity = 1

 SCF Done:  E(RHF) =  -226.391417754     A.U. after   13 cycles
 SCF Done:  E(RHF) =  -226.391425911     A.U. after   11 cycles
 SCF Done:  E(RHF) =  -226.391430392     A.U. after   10 cycles
 SCF Done:  E(RHF) =  -226.391430452     A.U. after    8 cycles
 SCF Done:  E(RHF) =  -226.391430457     A.U. after    6 cycles
 Optimization completed.
    -- Stationary point found.

                          Input orientation:
 ---------------------------------------------------------------------
 Center     Atomic      Atomic             Coordinates (Angstroms)
 Number     Number       Type             X           Y           Z
 ---------------------------------------------------------------------
      1          6           0        0.733428    0.612503    0.045903
      2          6           0        1.383762   -0.520054   -0.013502
      3          1           0        1.203803    1.572499    0.104713
      4          1           0        2.454511   -0.535879   -0.000923
      5          1           0        0.863887   -1.454949   -0.061243
      6          8           0       -0.674078    0.685265   -0.001941
      7          8           0       -1.196124    0.132825    1.260958
      8          1           0       -1.806454    0.846648    1.514565
 ---------------------------------------------------------------------

 Alpha  occ. eigenvalues --  -20.52253 -20.51669 -11.23571 -11.17428  -1.46121
 Alpha  occ. eigenvalues --   -1.22864  -1.03088  -0.79179  -0.70348  -0.65900
 Alpha  occ. eigenvalues --   -0.64085  -0.59412  -0.55183  -0.49198  -0.44911
 Alpha  occ. eigenvalues --   -0.38009
 Alpha virt. eigenvalues --    0.15675   0.26532   0.29405   0.30730   0.32279
 Alpha virt. eigenvalues --    0.36845   0.49836   0.56909   0.88699   0.97542
 Alpha virt. eigenvalues --    0.98829   1.06906   1.10388   1.12882   1.23347

 Mulliken charges:
               1
     1  C    0.128546
     2  C   -0.450614
     3  H    0.234859
     4  H    0.225109
     5  H    0.252501
     6  O   -0.415423
     7  O   -0.386835
     8  H    0.411856
 Sum of Mulliken charges =   0.00000

 Dipole moment (field-independent basis, Debye):
    X=              0.7417    Y=              1.1209    Z=              0.8512  Tot=              1.5910
 Quadrupole moment (field-independent basis, Debye-Ang):
   XX=            -18.9224   YY=            -20.7124   ZZ=            -24.0385
   XY=             -1.9361   XZ=             -2.8074   YZ=              2.8388

 Normal termination of Gaussian 09 at Fri Apr 12 16:52:48 2019.
