 Gaussian 09, Revision D.01,
 Gaussian 09:  AS64L-G09RevD.01 24-Apr-2013

 --------------------------------------------------------------------
 #p hf 3-21g scf=tight NoSymmetry guess=read opt=(tight,modredundant)
 --------------------------------------------------------------------

 -----------------------------------
 Geometry optimization at the 2D-PES
 -----------------------------------
 Symbolic Z-matrix:
 Charge =  0 Multiplicity = 1

 SCF Done:  E(RHF) =  -226.384059208     A.U. after   13 cycles
 SCF Done:  E(RHF) =  -226.384051960     A.U. after   13 cycles
 SCF Done:  E(RHF) =  -226.384196265     A.U. after   11 cycles
 SCF Done:  E(RHF) =  -226.384197193     A.U. after   10 cycles
 SCF Done:  E(RHF) =  -226.384197240     A.U. after    9 cycles
 SCF Done:  E(RHF) =  -226.384197252     A.U. after    8 cycles
 Optimization completed.
    -- Stationary point found.

                          Input orientation:
 ---------------------------------------------------------------------
 Center     Atomic      Atomic             Coordinates (Angstroms)
 Number     Number       Type             X           Y           Z
 ---------------------------------------------------------------------
      1          6           0        0.749310    0.553176    0.059824
      2          6           0        1.474575   -0.534280   -0.047799
      3          1           0        1.175490    1.533644    0.102439
      4          1           0        2.540302   -0.448076   -0.076051
      5          1           0        1.084484   -1.531025   -0.065485
      6          8           0       -0.632376    0.696421    0.056161
      7          8           0       -1.378621   -0.554751    0.141740
      8          1           0       -0.808177   -1.214909   -0.288297
 ---------------------------------------------------------------------

 Alpha  occ. eigenvalues --  -20.54972 -20.53491 -11.26504 -11.18192  -1.48889
 Alpha  occ. eigenvalues --   -1.25156  -1.05316  -0.81451  -0.73439  -0.68212
 Alpha  occ. eigenvalues --   -0.65156  -0.58254  -0.54640  -0.54086  -0.49342
 Alpha  occ. eigenvalues --   -0.37356
 Alpha virt. eigenvalues --    0.18102   0.20901   0.26850   0.27496   0.35868
 Alpha virt. eigenvalues --    0.36809   0.49260   0.60323   0.88015   0.95374
 Alpha virt. eigenvalues --    1.00971   1.05450   1.07939   1.10830   1.24212

 Mulliken charges:
               1
     1  C    0.151860
     2  C   -0.538393
     3  H    0.274005
     4  H    0.241416
     5  H    0.207904
     6  O   -0.390221
     7  O   -0.362280
     8  H    0.415707
 Sum of Mulliken charges =   0.00000

 Dipole moment (field-independent basis, Debye):
    X=              2.7293    Y=             -1.2484    Z=             -0.7908  Tot=              3.1038
 Quadrupole moment (field-independent basis, Debye-Ang):
   XX=            -25.5486   YY=            -19.7970   ZZ=            -25.7004
   XY=              2.2817   XZ=              0.9551   YZ=              1.1736

 Normal termination of Gaussian 09 at Fri Apr 12 17:53:45 2019.
