 Gaussian 09, Revision D.01,
 Gaussian 09:  AS64L-G09RevD.01 24-Apr-2013

 --------------------------------------------------------------------
 #p hf 3-21g scf=tight NoSymmetry guess=read opt=(tight,modredundant)
 --------------------------------------------------------------------

 -----------------------------------
 Geometry optimization at the 2D-PES
 -----------------------------------
 Symbolic Z-matrix:
 Charge =  0 Multiplicity = 1

 SCF Done:  E(RHF) =  -226.394836816     A.U. after   13 cycles
 SCF Done:  E(RHF) =  -226.394837206     A.U. after   10 cycles
 SCF Done:  E(RHF) =  -226.394837378     A.U. after    9 cycles
 SCF Done:  E(RHF) =  -226.394837388     A.U. after    7 cycles
 Optimization completed.
    -- Stationary point found.

                          Input orientation:
 ---------------------------------------------------------------------
 Center     Atomic      Atomic             Coordinates (Angstroms)
 Number     Number       Type             X           Y           Z
 ---------------------------------------------------------------------
      1          6           0        0.732572    0.590098    0.059968
      2          6           0        1.401305   -0.530535   -0.031202
      3          1           0        1.184052    1.560169    0.090523
      4          1           0        2.471661   -0.517375   -0.041176
      5          1           0        0.905411   -1.477580   -0.057531
      6          8           0       -0.661671    0.708767    0.035151
      7          8           0       -1.234124   -0.398667    0.814448
      8          1           0       -2.157412   -0.096010    0.847129
 ---------------------------------------------------------------------

 Alpha  occ. eigenvalues --  -20.52986 -20.52209 -11.23841 -11.16321  -1.46899
 Alpha  occ. eigenvalues --   -1.23512  -1.02761  -0.78886  -0.71282  -0.64811
 Alpha  occ. eigenvalues --   -0.64548  -0.60541  -0.54004  -0.50913  -0.46472
 Alpha  occ. eigenvalues --   -0.36113
 Alpha virt. eigenvalues --    0.17593   0.25191   0.29060   0.30600   0.33387
 Alpha virt. eigenvalues --    0.37314   0.50337   0.58142   0.89227   0.97646
 Alpha virt. eigenvalues --    1.00004   1.07397   1.10754   1.12569   1.24107

 Mulliken charges:
               1
     1  C    0.147801
     2  C   -0.482232
     3  H    0.250299
     4  H    0.221149
     5  H    0.252046
     6  O   -0.423588
     7  O   -0.385977
     8  H    0.420502
 Sum of Mulliken charges =   0.00000

 Dipole moment (field-independent basis, Debye):
    X=             -0.2005    Y=              0.3303    Z=              0.2981  Tot=              0.4880
 Quadrupole moment (field-independent basis, Debye-Ang):
   XX=            -16.0198   YY=            -22.6826   ZZ=            -25.5824
   XY=              0.8759   XZ=             -1.9022   YZ=              0.7642

 Normal termination of Gaussian 09 at Fri Apr 12 17:17:50 2019.
