 Gaussian 09, Revision D.01,
 Gaussian 09:  AS64L-G09RevD.01 24-Apr-2013

 --------------------------------------------------------------------
 #p hf 3-21g scf=tight NoSymmetry guess=read opt=(tight,modredundant)
 --------------------------------------------------------------------

 -----------------------------------
 Geometry optimization at the 2D-PES
 -----------------------------------
 Symbolic Z-matrix:
 Charge =  0 Multiplicity = 1

 SCF Done:  E(RHF) =  -226.391953581     A.U. after   13 cycles
 SCF Done:  E(RHF) =  -226.391956943     A.U. after   11 cycles
 SCF Done:  E(RHF) =  -226.391958350     A.U. after   10 cycles
 SCF Done:  E(RHF) =  -226.391958399     A.U. after    8 cycles
 SCF Done:  E(RHF) =  -226.391958401     A.U. after    6 cycles
 SCF Done:  E(RHF) =  -226.391958402     A.U. after    5 cycles
 Optimization completed.
    -- Stationary point found.

                          Input orientation:
 ---------------------------------------------------------------------
 Center     Atomic      Atomic             Coordinates (Angstroms)
 Number     Number       Type             X           Y           Z
 ---------------------------------------------------------------------
      1          6           0        0.727685    0.618158    0.045396
      2          6           0        1.377504   -0.515406   -0.008410
      3          1           0        1.196720    1.576807    0.117172
      4          1           0        2.448152   -0.533488    0.005593
      5          1           0        0.858167   -1.450490   -0.061920
      6          8           0       -0.678583    0.677196   -0.010571
      7          8           0       -1.174720    0.350238    1.343124
      8          1           0       -2.085061    0.098788    1.111105
 ---------------------------------------------------------------------

 Alpha  occ. eigenvalues --  -20.52076 -20.51475 -11.23555 -11.17656  -1.45832
 Alpha  occ. eigenvalues --   -1.22855  -1.03126  -0.78973  -0.69110  -0.68277
 Alpha  occ. eigenvalues --   -0.63920  -0.57668  -0.55134  -0.50867  -0.43988
 Alpha  occ. eigenvalues --   -0.38143
 Alpha virt. eigenvalues --    0.15353   0.27609   0.29393   0.30449   0.31840
 Alpha virt. eigenvalues --    0.36827   0.49732   0.56840   0.88919   0.97521
 Alpha virt. eigenvalues --    0.99189   1.06889   1.10189   1.12509   1.23517

 Mulliken charges:
               1
     1  C    0.139464
     2  C   -0.449156
     3  H    0.238790
     4  H    0.227441
     5  H    0.241896
     6  O   -0.422307
     7  O   -0.390004
     8  H    0.413876
 Sum of Mulliken charges =   0.00000

 Dipole moment (field-independent basis, Debye):
    X=              0.1424    Y=             -0.8490    Z=             -0.1693  Tot=              0.8773
 Quadrupole moment (field-independent basis, Debye-Ang):
   XX=            -16.2765   YY=            -22.5026   ZZ=            -26.8280
   XY=              1.7427   XZ=             -1.6531   YZ=             -0.3996

 Normal termination of Gaussian 09 at Fri Apr 12 16:44:37 2019.
