 Gaussian 09, Revision D.01,
 Gaussian 09:  AS64L-G09RevD.01 24-Apr-2013

 --------------------------------------------------------------------
 #p hf 3-21g scf=tight NoSymmetry guess=read opt=(tight,modredundant)
 --------------------------------------------------------------------

 -----------------------------------
 Geometry optimization at the 2D-PES
 -----------------------------------
 Symbolic Z-matrix:
 Charge =  0 Multiplicity = 1

 SCF Done:  E(RHF) =  -226.391008287     A.U. after   13 cycles
 SCF Done:  E(RHF) =  -226.391018649     A.U. after   13 cycles
 SCF Done:  E(RHF) =  -226.391070403     A.U. after   12 cycles
 SCF Done:  E(RHF) =  -226.391070736     A.U. after   10 cycles
 SCF Done:  E(RHF) =  -226.391070784     A.U. after    8 cycles
 SCF Done:  E(RHF) =  -226.391070788     A.U. after    7 cycles
 Optimization completed.
    -- Stationary point found.

                          Input orientation:
 ---------------------------------------------------------------------
 Center     Atomic      Atomic             Coordinates (Angstroms)
 Number     Number       Type             X           Y           Z
 ---------------------------------------------------------------------
      1          6           0        0.741938    0.563985    0.062075
      2          6           0        1.444167   -0.536547   -0.052348
      3          1           0        1.172362    1.542847    0.099895
      4          1           0        2.511643   -0.479181   -0.089560
      5          1           0        1.008065   -1.512667   -0.050117
      6          8           0       -0.644449    0.701232    0.061699
      7          8           0       -1.324073   -0.583747    0.146791
      8          1           0       -1.010898   -1.050881   -0.650836
 ---------------------------------------------------------------------

 Alpha  occ. eigenvalues --  -20.54834 -20.53587 -11.25784 -11.17524  -1.49027
 Alpha  occ. eigenvalues --   -1.24723  -1.04629  -0.80845  -0.72270  -0.68657
 Alpha  occ. eigenvalues --   -0.65673  -0.57212  -0.54527  -0.53777  -0.49154
 Alpha  occ. eigenvalues --   -0.37233
 Alpha virt. eigenvalues --    0.18493   0.21695   0.27848   0.28527   0.33733
 Alpha virt. eigenvalues --    0.36731   0.49320   0.58509   0.88130   0.96176
 Alpha virt. eigenvalues --    0.99868   1.05930   1.08882   1.11155   1.24819

 Mulliken charges:
               1
     1  C    0.149222
     2  C   -0.529927
     3  H    0.269024
     4  H    0.233482
     5  H    0.222861
     6  O   -0.392643
     7  O   -0.362165
     8  H    0.410146
 Sum of Mulliken charges =   0.00000

 Dipole moment (field-independent basis, Debye):
    X=              2.2030    Y=             -0.9357    Z=             -1.5394  Tot=              2.8458
 Quadrupole moment (field-independent basis, Debye-Ang):
   XX=            -24.6455   YY=            -20.6963   ZZ=            -24.8616
   XY=              2.4081   XZ=              1.8851   YZ=              1.9037

 Normal termination of Gaussian 09 at Fri Apr 12 17:52:30 2019.
