 Gaussian 09, Revision D.01,
 Gaussian 09:  AS64L-G09RevD.01 24-Apr-2013

 --------------------------------------------------------------------
 #p hf 3-21g scf=tight NoSymmetry guess=read opt=(tight,modredundant)
 --------------------------------------------------------------------

 -----------------------------------
 Geometry optimization at the 2D-PES
 -----------------------------------
 Symbolic Z-matrix:
 Charge =  0 Multiplicity = 1

 SCF Done:  E(RHF) =  -226.384568888     A.U. after   13 cycles
 SCF Done:  E(RHF) =  -226.384584735     A.U. after   12 cycles
 SCF Done:  E(RHF) =  -226.384595839     A.U. after   11 cycles
 SCF Done:  E(RHF) =  -226.384596084     A.U. after   10 cycles
 SCF Done:  E(RHF) =  -226.384596124     A.U. after    9 cycles
 SCF Done:  E(RHF) =  -226.384596125     A.U. after    6 cycles
 Optimization completed.
    -- Stationary point found.

                          Input orientation:
 ---------------------------------------------------------------------
 Center     Atomic      Atomic             Coordinates (Angstroms)
 Number     Number       Type             X           Y           Z
 ---------------------------------------------------------------------
      1          6           0        0.749336    0.598277    0.046160
      2          6           0        1.414486   -0.528812   -0.026582
      3          1           0        1.203943    1.566695    0.069287
      4          1           0        2.484871   -0.528582   -0.029239
      5          1           0        0.908787   -1.471836   -0.081002
      6          8           0       -0.653718    0.691879    0.029590
      7          8           0       -1.256450   -0.229609    1.006209
      8          1           0       -0.581586   -0.289647    1.709107
 ---------------------------------------------------------------------

 Alpha  occ. eigenvalues --  -20.53365 -20.52510 -11.25374 -11.18800  -1.47227
 Alpha  occ. eigenvalues --   -1.23682  -1.04931  -0.81101  -0.71376  -0.68453
 Alpha  occ. eigenvalues --   -0.61913  -0.58378  -0.57131  -0.52293  -0.46362
 Alpha  occ. eigenvalues --   -0.38366
 Alpha virt. eigenvalues --    0.14851   0.25244   0.27828   0.28714   0.31053
 Alpha virt. eigenvalues --    0.36748   0.49800   0.55867   0.87398   0.96674
 Alpha virt. eigenvalues --    0.98583   1.04895   1.08498   1.10811   1.23725

 Mulliken charges:
               1
     1  C    0.088359
     2  C   -0.483321
     3  H    0.257370
     4  H    0.234453
     5  H    0.254619
     6  O   -0.383028
     7  O   -0.368870
     8  H    0.400420
 Sum of Mulliken charges =   0.00000

 Dipole moment (field-independent basis, Debye):
    X=              3.2971    Y=             -0.3864    Z=              1.5342  Tot=              3.6571
 Quadrupole moment (field-independent basis, Debye-Ang):
   XX=            -25.4072   YY=            -22.1685   ZZ=            -21.5450
   XY=              1.0668   XZ=              0.4759   YZ=             -0.3311

 Normal termination of Gaussian 09 at Fri Apr 12 17:06:24 2019.
