 Gaussian 09, Revision D.01,
 Gaussian 09:  AS64L-G09RevD.01 24-Apr-2013

 --------------------------------------------------------------------
 #p hf 3-21g scf=tight NoSymmetry guess=read opt=(tight,modredundant)
 --------------------------------------------------------------------

 -----------------------------------
 Geometry optimization at the 2D-PES
 -----------------------------------
 Symbolic Z-matrix:
 Charge =  0 Multiplicity = 1

 SCF Done:  E(RHF) =  -226.387482103     A.U. after   12 cycles
 SCF Done:  E(RHF) =  -226.387492565     A.U. after   11 cycles
 SCF Done:  E(RHF) =  -226.387502107     A.U. after   11 cycles
 SCF Done:  E(RHF) =  -226.387502146     A.U. after    8 cycles
 SCF Done:  E(RHF) =  -226.387502150     A.U. after    7 cycles
 Optimization completed.
    -- Stationary point found.

                          Input orientation:
 ---------------------------------------------------------------------
 Center     Atomic      Atomic             Coordinates (Angstroms)
 Number     Number       Type             X           Y           Z
 ---------------------------------------------------------------------
      1          6           0        0.736164    0.606758    0.043585
      2          6           0        1.397316   -0.521508   -0.016080
      3          1           0        1.203933    1.566329    0.108015
      4          1           0        2.467732   -0.525563   -0.002288
      5          1           0        0.904251   -1.470742   -0.092744
      6          8           0       -0.673876    0.681669    0.005446
      7          8           0       -1.223145    0.143072    1.256771
      8          1           0       -1.180271   -0.816135    1.099021
 ---------------------------------------------------------------------

 Alpha  occ. eigenvalues --  -20.52924 -20.52355 -11.24758 -11.18710  -1.46983
 Alpha  occ. eigenvalues --   -1.23323  -1.04480  -0.80082  -0.72022  -0.66014
 Alpha  occ. eigenvalues --   -0.65553  -0.58731  -0.55802  -0.48960  -0.47339
 Alpha  occ. eigenvalues --   -0.38859
 Alpha virt. eigenvalues --    0.14824   0.23611   0.28507   0.29806   0.33027
 Alpha virt. eigenvalues --    0.36467   0.49900   0.56096   0.87958   0.96237
 Alpha virt. eigenvalues --    0.97930   1.05863   1.08943   1.11176   1.25548

 Mulliken charges:
               1
     1  C    0.133008
     2  C   -0.474716
     3  H    0.250726
     4  H    0.236749
     5  H    0.222629
     6  O   -0.400001
     7  O   -0.371325
     8  H    0.402929
 Sum of Mulliken charges =   0.00000

 Dipole moment (field-independent basis, Debye):
    X=              2.0879    Y=             -2.1196    Z=             -0.0536  Tot=              2.9757
 Quadrupole moment (field-independent basis, Debye-Ang):
   XX=            -23.0481   YY=            -20.7071   ZZ=            -26.4205
   XY=              3.8062   XZ=              0.4198   YZ=             -1.8776

 Normal termination of Gaussian 09 at Fri Apr 12 16:56:21 2019.
