 Gaussian 09, Revision D.01,
 Gaussian 09:  AS64L-G09RevD.01 24-Apr-2013

 --------------------------------------------------------------------
 #p hf 3-21g scf=tight NoSymmetry guess=read opt=(tight,modredundant)
 --------------------------------------------------------------------

 -----------------------------------
 Geometry optimization at the 2D-PES
 -----------------------------------
 Symbolic Z-matrix:
 Charge =  0 Multiplicity = 1

 SCF Done:  E(RHF) =  -226.381109849     A.U. after   13 cycles
 SCF Done:  E(RHF) =  -226.381111942     A.U. after   11 cycles
 SCF Done:  E(RHF) =  -226.381113871     A.U. after   11 cycles
 SCF Done:  E(RHF) =  -226.381113886     A.U. after    7 cycles
 SCF Done:  E(RHF) =  -226.381113888     A.U. after    6 cycles
 Optimization completed.
    -- Stationary point found.

                          Input orientation:
 ---------------------------------------------------------------------
 Center     Atomic      Atomic             Coordinates (Angstroms)
 Number     Number       Type             X           Y           Z
 ---------------------------------------------------------------------
      1          6           0        0.760704    0.625492    0.050532
      2          6           0        1.388149   -0.521664   -0.001200
      3          1           0        1.251847    1.579220    0.074276
      4          1           0        2.457781   -0.561810   -0.033054
      5          1           0        0.842232   -1.442252   -0.034830
      6          8           0       -0.643016    0.683487   -0.010480
      7          8           0       -1.186310    1.311078    1.212972
      8          1           0       -0.408695    1.670627    1.678679
 ---------------------------------------------------------------------

 Alpha  occ. eigenvalues --  -20.53228 -20.52113 -11.25164 -11.19144  -1.46677
 Alpha  occ. eigenvalues --   -1.23770  -1.04582  -0.81679  -0.71378  -0.67845
 Alpha  occ. eigenvalues --   -0.60895  -0.59333  -0.56559  -0.52476  -0.45441
 Alpha  occ. eigenvalues --   -0.38809
 Alpha virt. eigenvalues --    0.14164   0.25684   0.26828   0.30016   0.32136
 Alpha virt. eigenvalues --    0.35297   0.49310   0.55660   0.87700   0.96022
 Alpha virt. eigenvalues --    0.98628   1.06068   1.09266   1.11025   1.24203

 Mulliken charges:
               1
     1  C    0.076678
     2  C   -0.452125
     3  H    0.234489
     4  H    0.233110
     5  H    0.258732
     6  O   -0.374814
     7  O   -0.373779
     8  H    0.397710
 Sum of Mulliken charges =   0.00000

 Dipole moment (field-independent basis, Debye):
    X=              3.6118    Y=              0.3680    Z=              1.0605  Tot=              3.7822
 Quadrupole moment (field-independent basis, Debye-Ang):
   XX=            -25.2572   YY=            -19.9220   ZZ=            -22.8354
   XY=              2.7534   XZ=              1.4111   YZ=              2.8378

 Normal termination of Gaussian 09 at Fri Apr 12 16:19:45 2019.
