 Gaussian 09, Revision D.01,
 Gaussian 09:  AS64L-G09RevD.01 24-Apr-2013

 --------------------------------------------------------------------
 #p hf 3-21g scf=tight NoSymmetry guess=read opt=(tight,modredundant)
 --------------------------------------------------------------------

 -----------------------------------
 Geometry optimization at the 2D-PES
 -----------------------------------
 Symbolic Z-matrix:
 Charge =  0 Multiplicity = 1

 SCF Done:  E(RHF) =  -226.397955240     A.U. after   13 cycles
 SCF Done:  E(RHF) =  -226.397958583     A.U. after   11 cycles
 SCF Done:  E(RHF) =  -226.397964044     A.U. after   11 cycles
 SCF Done:  E(RHF) =  -226.397964091     A.U. after    8 cycles
 SCF Done:  E(RHF) =  -226.397964096     A.U. after    7 cycles
 Optimization completed.
    -- Stationary point found.

                          Input orientation:
 ---------------------------------------------------------------------
 Center     Atomic      Atomic             Coordinates (Angstroms)
 Number     Number       Type             X           Y           Z
 ---------------------------------------------------------------------
      1          6           0        0.733948    0.570331    0.046477
      2          6           0        1.421633   -0.538487   -0.047364
      3          1           0        1.166767    1.548578    0.091657
      4          1           0        2.491095   -0.498826   -0.060754
      5          1           0        0.945929   -1.492797   -0.100670
      6          8           0       -0.653528    0.709606    0.052370
      7          8           0       -1.275044   -0.607679    0.174573
      8          1           0       -1.999068   -0.385349    0.783267
 ---------------------------------------------------------------------

 Alpha  occ. eigenvalues --  -20.53905 -20.52768 -11.24212 -11.15752  -1.47959
 Alpha  occ. eigenvalues --   -1.24058  -1.02790  -0.79242  -0.71567  -0.66296
 Alpha  occ. eigenvalues --   -0.64045  -0.60588  -0.53851  -0.50461  -0.48549
 Alpha  occ. eigenvalues --   -0.35667
 Alpha virt. eigenvalues --    0.20023   0.22948   0.28707   0.30368   0.34158
 Alpha virt. eigenvalues --    0.37392   0.50049   0.59137   0.89260   0.97225
 Alpha virt. eigenvalues --    1.01509   1.07548   1.10738   1.13081   1.22641

 Mulliken charges:
               1
     1  C    0.152974
     2  C   -0.506554
     3  H    0.256926
     4  H    0.218541
     5  H    0.254953
     6  O   -0.417852
     7  O   -0.381760
     8  H    0.422772
 Sum of Mulliken charges =   0.00000

 Dipole moment (field-independent basis, Debye):
    X=              0.0206    Y=              0.2437    Z=              1.3630  Tot=              1.3848
 Quadrupole moment (field-independent basis, Debye-Ang):
   XX=            -17.9488   YY=            -22.8513   ZZ=            -24.4294
   XY=              1.6777   XZ=             -3.1072   YZ=             -0.2196

 Normal termination of Gaussian 09 at Fri Apr 12 17:48:23 2019.
