 Gaussian 09, Revision D.01,
 Gaussian 09:  AS64L-G09RevD.01 24-Apr-2013

 --------------------------------------------------------------------
 #p hf 3-21g scf=tight NoSymmetry guess=read opt=(tight,modredundant)
 --------------------------------------------------------------------

 -----------------------------------
 Geometry optimization at the 2D-PES
 -----------------------------------
 Symbolic Z-matrix:
 Charge =  0 Multiplicity = 1

 SCF Done:  E(RHF) =  -226.384471119     A.U. after   13 cycles
 SCF Done:  E(RHF) =  -226.384494066     A.U. after   12 cycles
 SCF Done:  E(RHF) =  -226.384506927     A.U. after   10 cycles
 SCF Done:  E(RHF) =  -226.384507184     A.U. after   10 cycles
 SCF Done:  E(RHF) =  -226.384507240     A.U. after    9 cycles
 SCF Done:  E(RHF) =  -226.384507243     A.U. after    8 cycles
 Optimization completed.
    -- Stationary point found.

                          Input orientation:
 ---------------------------------------------------------------------
 Center     Atomic      Atomic             Coordinates (Angstroms)
 Number     Number       Type             X           Y           Z
 ---------------------------------------------------------------------
      1          6           0        0.747560    0.636856    0.022283
      2          6           0        1.383592   -0.506801   -0.013181
      3          1           0        1.220394    1.595311    0.096126
      4          1           0        2.452229   -0.540582    0.044037
      5          1           0        0.847905   -1.432078   -0.075854
      6          8           0       -0.657727    0.669728    0.043892
      7          8           0       -1.134790    1.600426   -0.995591
      8          1           0       -0.450353    1.554701   -1.689168
 ---------------------------------------------------------------------

 Alpha  occ. eigenvalues --  -20.53490 -20.52357 -11.25137 -11.18946  -1.47175
 Alpha  occ. eigenvalues --   -1.23853  -1.04503  -0.81350  -0.72232  -0.66763
 Alpha  occ. eigenvalues --   -0.62527  -0.59402  -0.55626  -0.52684  -0.46077
 Alpha  occ. eigenvalues --   -0.38581
 Alpha virt. eigenvalues --    0.14663   0.25255   0.27445   0.30311   0.31672
 Alpha virt. eigenvalues --    0.35400   0.48800   0.55971   0.88042   0.96404
 Alpha virt. eigenvalues --    0.98200   1.06051   1.09225   1.10794   1.24439

 Mulliken charges:
               1
     1  C    0.081690
     2  C   -0.464934
     3  H    0.246670
     4  H    0.233704
     5  H    0.254505
     6  O   -0.376137
     7  O   -0.375133
     8  H    0.399634
 Sum of Mulliken charges =   0.00000

 Dipole moment (field-independent basis, Debye):
    X=              3.3777    Y=             -0.2640    Z=             -1.4697  Tot=              3.6931
 Quadrupole moment (field-independent basis, Debye-Ang):
   XX=            -25.0877   YY=            -22.3435   ZZ=            -21.6790
   XY=              3.3129   XZ=             -0.4573   YZ=             -2.0465

 Normal termination of Gaussian 09 at Fri Apr 12 15:18:58 2019.
