 Gaussian 09, Revision D.01,
 Gaussian 09:  AS64L-G09RevD.01 24-Apr-2013

 --------------------------------------------------------------------
 #p hf 3-21g scf=tight NoSymmetry guess=read opt=(tight,modredundant)
 --------------------------------------------------------------------

 -----------------------------------
 Geometry optimization at the 2D-PES
 -----------------------------------
 Symbolic Z-matrix:
 Charge =  0 Multiplicity = 1

 SCF Done:  E(RHF) =  -226.381936451     A.U. after   13 cycles
 SCF Done:  E(RHF) =  -226.381947321     A.U. after   12 cycles
 SCF Done:  E(RHF) =  -226.381964626     A.U. after   12 cycles
 SCF Done:  E(RHF) =  -226.381964672     A.U. after    9 cycles
 SCF Done:  E(RHF) =  -226.381964684     A.U. after    8 cycles
 Optimization completed.
    -- Stationary point found.

                          Input orientation:
 ---------------------------------------------------------------------
 Center     Atomic      Atomic             Coordinates (Angstroms)
 Number     Number       Type             X           Y           Z
 ---------------------------------------------------------------------
      1          6           0        0.763177    0.628403    0.061991
      2          6           0        1.384696   -0.520973    0.001893
      3          1           0        1.267566    1.576027    0.076872
      4          1           0        2.453404   -0.563553   -0.041810
      5          1           0        0.836461   -1.440240   -0.020627
      6          8           0       -0.635608    0.696931   -0.012082
      7          8           0       -1.165010    1.696740    0.927968
      8          1           0       -0.460418    2.367164    0.999335
 ---------------------------------------------------------------------

 Alpha  occ. eigenvalues --  -20.53812 -20.52717 -11.25485 -11.18326  -1.47501
 Alpha  occ. eigenvalues --   -1.24234  -1.04262  -0.81889  -0.71234  -0.68018
 Alpha  occ. eigenvalues --   -0.62946  -0.58442  -0.56341  -0.51966  -0.47611
 Alpha  occ. eigenvalues --   -0.37631
 Alpha virt. eigenvalues --    0.15946   0.24224   0.24514   0.30673   0.33953
 Alpha virt. eigenvalues --    0.35217   0.50540   0.56071   0.88622   0.95867
 Alpha virt. eigenvalues --    0.99254   1.05588   1.09738   1.11030   1.23810

 Mulliken charges:
               1
     1  C    0.113473
     2  C   -0.472105
     3  H    0.222424
     4  H    0.231365
     5  H    0.254836
     6  O   -0.379584
     7  O   -0.367172
     8  H    0.396764
 Sum of Mulliken charges =   0.00000

 Dipole moment (field-independent basis, Debye):
    X=              3.3127    Y=              1.1731    Z=              0.2912  Tot=              3.5263
 Quadrupole moment (field-independent basis, Debye-Ang):
   XX=            -25.1818   YY=            -16.3793   ZZ=            -25.4775
   XY=              2.8519   XZ=              1.0710   YZ=              1.9513

 Normal termination of Gaussian 09 at Fri Apr 12 16:05:45 2019.
