 Gaussian 09, Revision D.01,
 Gaussian 09:  AS64L-G09RevD.01 24-Apr-2013

 --------------------------------------------------------------------
 #p hf 3-21g scf=tight NoSymmetry guess=read opt=(tight,modredundant)
 --------------------------------------------------------------------

 -----------------------------------
 Geometry optimization at the 2D-PES
 -----------------------------------
 Symbolic Z-matrix:
 Charge =  0 Multiplicity = 1

 SCF Done:  E(RHF) =  -226.381225729     A.U. after   14 cycles
 SCF Done:  E(RHF) =  -226.381238631     A.U. after   12 cycles
 SCF Done:  E(RHF) =  -226.381251135     A.U. after   11 cycles
 SCF Done:  E(RHF) =  -226.381251258     A.U. after    8 cycles
 SCF Done:  E(RHF) =  -226.381251277     A.U. after    7 cycles
 SCF Done:  E(RHF) =  -226.381251277     A.U. after    6 cycles
 Optimization completed.
    -- Stationary point found.

                          Input orientation:
 ---------------------------------------------------------------------
 Center     Atomic      Atomic             Coordinates (Angstroms)
 Number     Number       Type             X           Y           Z
 ---------------------------------------------------------------------
      1          6           0        0.749172    0.632747    0.028998
      2          6           0        1.391551   -0.507445   -0.006522
      3          1           0        1.224232    1.591436    0.096892
      4          1           0        2.460880   -0.537442    0.045461
      5          1           0        0.858284   -1.434447   -0.065202
      6          8           0       -0.658877    0.667747    0.037297
      7          8           0       -1.159945    1.192806   -1.253394
      8          1           0       -0.356683    1.377518   -1.774673
 ---------------------------------------------------------------------

 Alpha  occ. eigenvalues --  -20.52976 -20.51906 -11.25066 -11.19478  -1.46404
 Alpha  occ. eigenvalues --   -1.23547  -1.04763  -0.81502  -0.71569  -0.67644
 Alpha  occ. eigenvalues --   -0.60495  -0.59332  -0.56654  -0.52676  -0.44551
 Alpha  occ. eigenvalues --   -0.39462
 Alpha virt. eigenvalues --    0.13727   0.26198   0.27538   0.29681   0.31283
 Alpha virt. eigenvalues --    0.35568   0.48984   0.55490   0.87428   0.96260
 Alpha virt. eigenvalues --    0.97999   1.05707   1.08909   1.11202   1.24365

 Mulliken charges:
               1
     1  C    0.064152
     2  C   -0.445557
     3  H    0.239987
     4  H    0.234196
     5  H    0.259498
     6  O   -0.374707
     7  O   -0.375774
     8  H    0.398205
 Sum of Mulliken charges =   0.00000

 Dipole moment (field-independent basis, Debye):
    X=              3.7270    Y=              0.0125    Z=             -1.1255  Tot=              3.8932
 Quadrupole moment (field-independent basis, Debye-Ang):
   XX=            -25.2256   YY=            -21.1278   ZZ=            -22.3005
   XY=              2.7578   XZ=             -1.4335   YZ=             -1.9141

 Normal termination of Gaussian 09 at Fri Apr 12 15:10:25 2019.
