 Gaussian 09, Revision D.01,
 Gaussian 09:  AS64L-G09RevD.01 24-Apr-2013

 --------------------------------------------------------------------
 #p hf 3-21g scf=tight NoSymmetry guess=read opt=(tight,modredundant)
 --------------------------------------------------------------------

 -----------------------------------
 Geometry optimization at the 2D-PES
 -----------------------------------
 Symbolic Z-matrix:
 Charge =  0 Multiplicity = 1

 SCF Done:  E(RHF) =  -226.386470143     A.U. after   13 cycles
 SCF Done:  E(RHF) =  -226.386492752     A.U. after   12 cycles
 SCF Done:  E(RHF) =  -226.386514989     A.U. after   12 cycles
 SCF Done:  E(RHF) =  -226.386515168     A.U. after    9 cycles
 SCF Done:  E(RHF) =  -226.386515204     A.U. after    8 cycles
 SCF Done:  E(RHF) =  -226.386515205     A.U. after    6 cycles
 Optimization completed.
    -- Stationary point found.

                          Input orientation:
 ---------------------------------------------------------------------
 Center     Atomic      Atomic             Coordinates (Angstroms)
 Number     Number       Type             X           Y           Z
 ---------------------------------------------------------------------
      1          6           0        0.751778    0.633950    0.053790
      2          6           0        1.377948   -0.513343   -0.002442
      3          1           0        1.245941    1.582696    0.104602
      4          1           0        2.447360   -0.547950   -0.024244
      5          1           0        0.838526   -1.437628   -0.033878
      6          8           0       -0.649982    0.691538   -0.001331
      7          8           0       -1.118304    1.965840    0.542646
      8          1           0       -0.696656    2.623834   -0.040818
 ---------------------------------------------------------------------

 Alpha  occ. eigenvalues --  -20.54088 -20.53267 -11.25297 -11.17407  -1.48245
 Alpha  occ. eigenvalues --   -1.24324  -1.03757  -0.81282  -0.71369  -0.67763
 Alpha  occ. eigenvalues --   -0.64985  -0.57090  -0.55464  -0.52524  -0.48859
 Alpha  occ. eigenvalues --   -0.36803
 Alpha virt. eigenvalues --    0.18015   0.22383   0.24934   0.31326   0.33978
 Alpha virt. eigenvalues --    0.35453   0.50259   0.56707   0.89145   0.96328
 Alpha virt. eigenvalues --    0.99077   1.06038   1.10067   1.11002   1.24393

 Mulliken charges:
               1
     1  C    0.138686
     2  C   -0.493325
     3  H    0.230677
     4  H    0.229208
     5  H    0.248564
     6  O   -0.389169
     7  O   -0.364905
     8  H    0.400263
 Sum of Mulliken charges =   0.00000

 Dipole moment (field-independent basis, Debye):
    X=              2.6337    Y=              1.4726    Z=             -1.0504  Tot=              3.1950
 Quadrupole moment (field-independent basis, Debye-Ang):
   XX=            -24.6402   YY=            -15.4398   ZZ=            -26.3583
   XY=              1.8799   XZ=              1.2320   YZ=             -2.2606

 Normal termination of Gaussian 09 at Fri Apr 12 15:52:38 2019.
