 Gaussian 09, Revision D.01,
 Gaussian 09:  AS64L-G09RevD.01 24-Apr-2013

 --------------------------------------------------------------------
 #p hf 3-21g scf=tight NoSymmetry guess=read opt=(tight,modredundant)
 --------------------------------------------------------------------

 -----------------------------------
 Geometry optimization at the 2D-PES
 -----------------------------------
 Symbolic Z-matrix:
 Charge =  0 Multiplicity = 1

 SCF Done:  E(RHF) =  -226.395116218     A.U. after   13 cycles
 SCF Done:  E(RHF) =  -226.395122851     A.U. after   11 cycles
 SCF Done:  E(RHF) =  -226.395127346     A.U. after   10 cycles
 SCF Done:  E(RHF) =  -226.395127383     A.U. after    8 cycles
 SCF Done:  E(RHF) =  -226.395127387     A.U. after    7 cycles
 Optimization completed.
    -- Stationary point found.

                          Input orientation:
 ---------------------------------------------------------------------
 Center     Atomic      Atomic             Coordinates (Angstroms)
 Number     Number       Type             X           Y           Z
 ---------------------------------------------------------------------
      1          6           0        0.729043    0.638804    0.022073
      2          6           0        1.369838   -0.501933   -0.020356
      3          1           0        1.186353    1.602160    0.080236
      4          1           0        2.438907   -0.524811    0.027105
      5          1           0        0.846150   -1.434042   -0.083404
      6          8           0       -0.674456    0.670874    0.051495
      7          8           0       -1.082431    1.912633   -0.609953
      8          1           0       -1.473295    1.562585   -1.429324
 ---------------------------------------------------------------------

 Alpha  occ. eigenvalues --  -20.53632 -20.52720 -11.24369 -11.17028  -1.47816
 Alpha  occ. eigenvalues --   -1.23896  -1.03119  -0.79869  -0.71938  -0.66194
 Alpha  occ. eigenvalues --   -0.63641  -0.60389  -0.55405  -0.49404  -0.48537
 Alpha  occ. eigenvalues --   -0.36937
 Alpha virt. eigenvalues --    0.17862   0.23940   0.27651   0.31567   0.33442
 Alpha virt. eigenvalues --    0.35829   0.49425   0.57252   0.89931   0.96739
 Alpha virt. eigenvalues --    0.99861   1.06318   1.10539   1.12202   1.22560

 Mulliken charges:
               1
     1  C    0.147792
     2  C   -0.499266
     3  H    0.259003
     4  H    0.228152
     5  H    0.239169
     6  O   -0.405157
     7  O   -0.384065
     8  H    0.414372
 Sum of Mulliken charges =   0.00000

 Dipole moment (field-independent basis, Debye):
    X=              0.9728    Y=             -0.4442    Z=             -1.8635  Tot=              2.1485
 Quadrupole moment (field-independent basis, Debye-Ang):
   XX=            -21.0086   YY=            -24.3705   ZZ=            -21.9252
   XY=              0.8011   XZ=              3.6338   YZ=             -2.2140

 Normal termination of Gaussian 09 at Fri Apr 12 15:28:31 2019.
