 Gaussian 09, Revision D.01,
 Gaussian 09:  AS64L-G09RevD.01 24-Apr-2013

 --------------------------------------------------------------------
 #p hf 3-21g scf=tight NoSymmetry guess=read opt=(tight,modredundant)
 --------------------------------------------------------------------

 -----------------------------------
 Geometry optimization at the 2D-PES
 -----------------------------------
 Symbolic Z-matrix:
 Charge =  0 Multiplicity = 1

 SCF Done:  E(RHF) =  -226.395785913     A.U. after   13 cycles
 SCF Done:  E(RHF) =  -226.395830982     A.U. after   12 cycles
 SCF Done:  E(RHF) =  -226.395837224     A.U. after   11 cycles
 SCF Done:  E(RHF) =  -226.395837362     A.U. after    8 cycles
 SCF Done:  E(RHF) =  -226.395837363     A.U. after    6 cycles
 Optimization completed.
    -- Stationary point found.

                          Input orientation:
 ---------------------------------------------------------------------
 Center     Atomic      Atomic             Coordinates (Angstroms)
 Number     Number       Type             X           Y           Z
 ---------------------------------------------------------------------
      1          6           0        0.718248    0.633719    0.040455
      2          6           0        1.366580   -0.503000   -0.011149
      3          1           0        1.172301    1.598806    0.094235
      4          1           0        2.436527   -0.512220   -0.001015
      5          1           0        0.853260   -1.441263   -0.064166
      6          8           0       -0.678801    0.668489    0.028373
      7          8           0       -1.052018    2.085817    0.097033
      8          1           0       -2.018786    1.992658    0.082687
 ---------------------------------------------------------------------

 Alpha  occ. eigenvalues --  -20.53631 -20.52792 -11.24291 -11.16065  -1.47772
 Alpha  occ. eigenvalues --   -1.24166  -1.02496  -0.79873  -0.70518  -0.67108
 Alpha  occ. eigenvalues --   -0.63855  -0.59951  -0.55251  -0.50506  -0.48741
 Alpha  occ. eigenvalues --   -0.35371
 Alpha virt. eigenvalues --    0.19848   0.22424   0.27533   0.32286   0.34265
 Alpha virt. eigenvalues --    0.36082   0.50302   0.57908   0.90397   0.97444
 Alpha virt. eigenvalues --    1.00237   1.07131   1.11028   1.12263   1.23396

 Mulliken charges:
               1
     1  C    0.174966
     2  C   -0.514693
     3  H    0.266677
     4  H    0.225508
     5  H    0.235145
     6  O   -0.422931
     7  O   -0.389276
     8  H    0.424605
 Sum of Mulliken charges =   0.00000

 Dipole moment (field-independent basis, Debye):
    X=             -0.3901    Y=              0.3411    Z=              0.0135  Tot=              0.5183
 Quadrupole moment (field-independent basis, Debye-Ang):
   XX=            -16.4985   YY=            -22.2989   ZZ=            -25.8304
   XY=             -2.7393   XZ=             -0.0476   YZ=              0.1539

 Normal termination of Gaussian 09 at Fri Apr 12 15:38:10 2019.
