 Gaussian 09, Revision D.01,
 Gaussian 09:  AS64L-G09RevD.01 24-Apr-2013

 --------------------------------------------------------------------
 #p hf 3-21g scf=tight NoSymmetry guess=read opt=(tight,modredundant)
 --------------------------------------------------------------------

 -----------------------------------
 Geometry optimization at the 2D-PES
 -----------------------------------
 Symbolic Z-matrix:
 Charge =  0 Multiplicity = 1

 SCF Done:  E(RHF) =  -226.398408264     A.U. after   13 cycles
 SCF Done:  E(RHF) =  -226.398409060     A.U. after   11 cycles
 SCF Done:  E(RHF) =  -226.398410386     A.U. after   10 cycles
 SCF Done:  E(RHF) =  -226.398410401     A.U. after    8 cycles
 SCF Done:  E(RHF) =  -226.398410404     A.U. after    6 cycles
 Optimization completed.
    -- Stationary point found.

                          Input orientation:
 ---------------------------------------------------------------------
 Center     Atomic      Atomic             Coordinates (Angstroms)
 Number     Number       Type             X           Y           Z
 ---------------------------------------------------------------------
      1          6           0        0.732658    0.572283    0.033365
      2          6           0        1.421486   -0.536496   -0.054456
      3          1           0        1.164945    1.549620    0.097586
      4          1           0        2.490949   -0.495327   -0.060805
      5          1           0        0.947798   -1.490723   -0.121896
      6          8           0       -0.652231    0.711773    0.051446
      7          8           0       -1.270312   -0.610435   -0.045492
      8          1           0       -2.149733   -0.392420    0.304957
 ---------------------------------------------------------------------

 Alpha  occ. eigenvalues --  -20.53902 -20.52719 -11.24182 -11.15588  -1.47909
 Alpha  occ. eigenvalues --   -1.24119  -1.02666  -0.79092  -0.71874  -0.65428
 Alpha  occ. eigenvalues --   -0.64212  -0.61129  -0.53602  -0.50736  -0.48438
 Alpha  occ. eigenvalues --   -0.35409
 Alpha virt. eigenvalues --    0.20444   0.22772   0.28592   0.30545   0.34353
 Alpha virt. eigenvalues --    0.37452   0.50195   0.59305   0.89424   0.97477
 Alpha virt. eigenvalues --    1.01107   1.07692   1.10765   1.12893   1.23685

 Mulliken charges:
               1
     1  C    0.158444
     2  C   -0.508701
     3  H    0.257645
     4  H    0.217843
     5  H    0.255265
     6  O   -0.421852
     7  O   -0.383334
     8  H    0.424689
 Sum of Mulliken charges =   0.00000

 Dipole moment (field-independent basis, Debye):
    X=             -0.3395    Y=              0.2485    Z=              0.7390  Tot=              0.8504
 Quadrupole moment (field-independent basis, Debye-Ang):
   XX=            -16.4584   YY=            -22.8331   ZZ=            -25.6026
   XY=              1.8791   XZ=             -1.6018   YZ=             -0.0898

 Normal termination of Gaussian 09 at Fri Apr 12 17:59:58 2019.
