 Gaussian 09, Revision D.01,
 Gaussian 09:  AS64L-G09RevD.01 24-Apr-2013

 --------------------------------------------------------------------
 #p hf 3-21g scf=tight NoSymmetry guess=read opt=(tight,modredundant)
 --------------------------------------------------------------------

 -----------------------------------
 Geometry optimization at the 2D-PES
 -----------------------------------
 Symbolic Z-matrix:
 Charge =  0 Multiplicity = 1

 SCF Done:  E(RHF) =  -226.387269001     A.U. after   13 cycles
 SCF Done:  E(RHF) =  -226.387274752     A.U. after   12 cycles
 SCF Done:  E(RHF) =  -226.387281754     A.U. after   10 cycles
 SCF Done:  E(RHF) =  -226.387281764     A.U. after    8 cycles
 SCF Done:  E(RHF) =  -226.387281766     A.U. after    6 cycles
 Optimization completed.
    -- Stationary point found.

                          Input orientation:
 ---------------------------------------------------------------------
 Center     Atomic      Atomic             Coordinates (Angstroms)
 Number     Number       Type             X           Y           Z
 ---------------------------------------------------------------------
      1          6           0        0.745110    0.611310    0.047270
      2          6           0        1.394158   -0.522265   -0.015780
      3          1           0        1.215529    1.572904    0.086789
      4          1           0        2.465036   -0.541228   -0.013079
      5          1           0        0.869649   -1.455032   -0.058447
      6          8           0       -0.667159    0.688046    0.006207
      7          8           0       -1.218244    0.144699    1.255905
      8          1           0       -0.962123    0.820327    1.910242
 ---------------------------------------------------------------------

 Alpha  occ. eigenvalues --  -20.52660 -20.52026 -11.24126 -11.18329  -1.46599
 Alpha  occ. eigenvalues --   -1.22954  -1.03921  -0.80423  -0.69515  -0.68750
 Alpha  occ. eigenvalues --   -0.61224  -0.59771  -0.56782  -0.48768  -0.45992
 Alpha  occ. eigenvalues --   -0.38760
 Alpha virt. eigenvalues --    0.14652   0.26610   0.28467   0.29639   0.31717
 Alpha virt. eigenvalues --    0.36569   0.49615   0.56176   0.87854   0.96667
 Alpha virt. eigenvalues --    0.98659   1.06208   1.09484   1.10871   1.24807

 Mulliken charges:
               1
     1  C    0.087677
     2  C   -0.445043
     3  H    0.237830
     4  H    0.228578
     5  H    0.258321
     6  O   -0.390989
     7  O   -0.375958
     8  H    0.399585
 Sum of Mulliken charges =   0.00000

 Dipole moment (field-independent basis, Debye):
    X=              2.5793    Y=              0.9271    Z=              1.5604  Tot=              3.1539
 Quadrupole moment (field-independent basis, Debye-Ang):
   XX=            -24.0578   YY=            -20.8484   ZZ=            -21.1552
   XY=             -0.2451   XZ=             -0.7375   YZ=              3.3345

 Normal termination of Gaussian 09 at Fri Apr 12 16:51:13 2019.
