 Gaussian 09, Revision D.01,
 Gaussian 09:  AS64L-G09RevD.01 24-Apr-2013

 --------------------------------------------------------------------
 #p hf 3-21g scf=tight NoSymmetry guess=read opt=(tight,modredundant)
 --------------------------------------------------------------------

 -----------------------------------
 Geometry optimization at the 2D-PES
 -----------------------------------
 Symbolic Z-matrix:
 Charge =  0 Multiplicity = 1

 SCF Done:  E(RHF) =  -226.392519068     A.U. after   13 cycles
 SCF Done:  E(RHF) =  -226.392520017     A.U. after   10 cycles
 SCF Done:  E(RHF) =  -226.392520979     A.U. after   10 cycles
 SCF Done:  E(RHF) =  -226.392520987     A.U. after    7 cycles
 Optimization completed.
    -- Stationary point found.

                          Input orientation:
 ---------------------------------------------------------------------
 Center     Atomic      Atomic             Coordinates (Angstroms)
 Number     Number       Type             X           Y           Z
 ---------------------------------------------------------------------
      1          6           0        0.731303    0.606780    0.051287
      2          6           0        1.387710   -0.522089   -0.019108
      3          1           0        1.195755    1.569795    0.101221
      4          1           0        2.458424   -0.529118   -0.011040
      5          1           0        0.875783   -1.461396   -0.058084
      6          8           0       -0.671376    0.693321    0.008336
      7          8           0       -1.201482   -0.079352    1.147863
      8          1           0       -2.086933    0.319641    1.201739
 ---------------------------------------------------------------------

 Alpha  occ. eigenvalues --  -20.52315 -20.51741 -11.23582 -11.17046  -1.46144
 Alpha  occ. eigenvalues --   -1.23019  -1.02913  -0.78875  -0.70624  -0.65369
 Alpha  occ. eigenvalues --   -0.64452  -0.59448  -0.54577  -0.50548  -0.44876
 Alpha  occ. eigenvalues --   -0.37205
 Alpha virt. eigenvalues --    0.16152   0.26481   0.29418   0.30619   0.32561
 Alpha virt. eigenvalues --    0.37099   0.50151   0.57286   0.89003   0.97683
 Alpha virt. eigenvalues --    0.99281   1.07175   1.10613   1.12519   1.23819

 Mulliken charges:
               1
     1  C    0.138100
     2  C   -0.459328
     3  H    0.241379
     4  H    0.224034
     5  H    0.250668
     6  O   -0.422740
     7  O   -0.388124
     8  H    0.416011
 Sum of Mulliken charges =   0.00000

 Dipole moment (field-independent basis, Debye):
    X=              0.0839    Y=              0.4814    Z=              0.4211  Tot=              0.6450
 Quadrupole moment (field-independent basis, Debye-Ang):
   XX=            -16.4544   YY=            -22.1075   ZZ=            -25.3273
   XY=             -0.4299   XZ=             -2.5850   YZ=              1.3633

 Normal termination of Gaussian 09 at Fri Apr 12 17:01:12 2019.
