 Gaussian 09, Revision D.01,
 Gaussian 09:  AS64L-G09RevD.01 24-Apr-2013

 --------------------------------------------------------------------
 #p hf 3-21g scf=tight NoSymmetry guess=read opt=(tight,modredundant)
 --------------------------------------------------------------------

 -----------------------------------
 Geometry optimization at the 2D-PES
 -----------------------------------
 Symbolic Z-matrix:
 Charge =  0 Multiplicity = 1

 SCF Done:  E(RHF) =  -226.392321822     A.U. after   13 cycles
 SCF Done:  E(RHF) =  -226.392327206     A.U. after   11 cycles
 SCF Done:  E(RHF) =  -226.392332160     A.U. after   10 cycles
 SCF Done:  E(RHF) =  -226.392332176     A.U. after    8 cycles
 SCF Done:  E(RHF) =  -226.392332184     A.U. after    7 cycles
 Optimization completed.
    -- Stationary point found.

                          Input orientation:
 ---------------------------------------------------------------------
 Center     Atomic      Atomic             Coordinates (Angstroms)
 Number     Number       Type             X           Y           Z
 ---------------------------------------------------------------------
      1          6           0        0.727038    0.636442    0.026438
      2          6           0        1.371453   -0.502098   -0.023863
      3          1           0        1.185334    1.601241    0.059581
      4          1           0        2.441438   -0.526981    0.007663
      5          1           0        0.845208   -1.434478   -0.065100
      6          8           0       -0.681994    0.659386    0.051721
      7          8           0       -1.107012    1.412184   -1.136437
      8          1           0       -1.027184    0.737679   -1.835699
 ---------------------------------------------------------------------

 Alpha  occ. eigenvalues --  -20.53301 -20.52345 -11.24558 -11.18378  -1.47359
 Alpha  occ. eigenvalues --   -1.23475  -1.03983  -0.80200  -0.72366  -0.65560
 Alpha  occ. eigenvalues --   -0.63677  -0.60465  -0.55919  -0.49120  -0.46981
 Alpha  occ. eigenvalues --   -0.38859
 Alpha virt. eigenvalues --    0.15795   0.25606   0.27568   0.30717   0.32028
 Alpha virt. eigenvalues --    0.35710   0.48793   0.56210   0.88694   0.96416
 Alpha virt. eigenvalues --    0.98522   1.06203   1.09577   1.10886   1.24195

 Mulliken charges:
               1
     1  C    0.118156
     2  C   -0.475520
     3  H    0.250863
     4  H    0.232066
     5  H    0.243238
     6  O   -0.391336
     7  O   -0.381108
     8  H    0.403641
 Sum of Mulliken charges =   0.00000

 Dipole moment (field-independent basis, Debye):
    X=              2.1334    Y=             -1.3951    Z=             -1.5845  Tot=              3.0014
 Quadrupole moment (field-independent basis, Debye-Ang):
   XX=            -23.4274   YY=            -24.9525   ZZ=            -21.1630
   XY=              2.8908   XZ=              1.6770   YZ=              0.6867

 Normal termination of Gaussian 09 at Fri Apr 12 15:14:46 2019.
