 Gaussian 09, Revision D.01,
 Gaussian 09:  AS64L-G09RevD.01 24-Apr-2013

 --------------------------------------------------------------------
 #p hf 3-21g scf=tight NoSymmetry guess=read opt=(tight,modredundant)
 --------------------------------------------------------------------

 -----------------------------------
 Geometry optimization at the 2D-PES
 -----------------------------------
 Symbolic Z-matrix:
 Charge =  0 Multiplicity = 1

 SCF Done:  E(RHF) =  -226.380402916     A.U. after   13 cycles
 SCF Done:  E(RHF) =  -226.380405223     A.U. after   11 cycles
 SCF Done:  E(RHF) =  -226.380408129     A.U. after   11 cycles
 SCF Done:  E(RHF) =  -226.380408144     A.U. after    7 cycles
 SCF Done:  E(RHF) =  -226.380408146     A.U. after    7 cycles
 Optimization completed.
    -- Stationary point found.

                          Input orientation:
 ---------------------------------------------------------------------
 Center     Atomic      Atomic             Coordinates (Angstroms)
 Number     Number       Type             X           Y           Z
 ---------------------------------------------------------------------
      1          6           0        0.767263    0.627573    0.061841
      2          6           0        1.386278   -0.523493    0.001629
      3          1           0        1.271321    1.575420    0.069745
      4          1           0        2.454948   -0.568067   -0.041771
      5          1           0        0.836206   -1.441680   -0.023024
      6          8           0       -0.631305    0.696834   -0.010432
      7          8           0       -1.168263    1.697692    0.928584
      8          1           0       -0.390226    2.183483    1.258444
 ---------------------------------------------------------------------

 Alpha  occ. eigenvalues --  -20.53747 -20.52604 -11.25547 -11.18533  -1.47311
 Alpha  occ. eigenvalues --   -1.24261  -1.04399  -0.81968  -0.71600  -0.67651
 Alpha  occ. eigenvalues --   -0.62274  -0.59122  -0.56015  -0.52663  -0.47150
 Alpha  occ. eigenvalues --   -0.37704
 Alpha virt. eigenvalues --    0.15351   0.24341   0.25237   0.30510   0.33444
 Alpha virt. eigenvalues --    0.35191   0.50119   0.55954   0.88316   0.95875
 Alpha virt. eigenvalues --    0.99172   1.05852   1.09582   1.11053   1.23562

 Mulliken charges:
               1
     1  C    0.100646
     2  C   -0.470354
     3  H    0.229142
     4  H    0.232272
     5  H    0.255609
     6  O   -0.376631
     7  O   -0.368878
     8  H    0.398193
 Sum of Mulliken charges =   0.00000

 Dipole moment (field-independent basis, Debye):
    X=              3.4853    Y=              0.7874    Z=              0.7947  Tot=              3.6604
 Quadrupole moment (field-independent basis, Debye-Ang):
   XX=            -25.2728   YY=            -18.1424   ZZ=            -24.2136
   XY=              3.3669   XZ=              1.0326   YZ=              2.7624

 Normal termination of Gaussian 09 at Fri Apr 12 16:06:11 2019.
