 Gaussian 09, Revision D.01,
 Gaussian 09:  AS64L-G09RevD.01 24-Apr-2013

 --------------------------------------------------------------------
 #p hf 3-21g scf=tight NoSymmetry guess=read opt=(tight,modredundant)
 --------------------------------------------------------------------

 -----------------------------------
 Geometry optimization at the 2D-PES
 -----------------------------------
 Symbolic Z-matrix:
 Charge =  0 Multiplicity = 1

 SCF Done:  E(RHF) =  -226.393840202     A.U. after   13 cycles
 SCF Done:  E(RHF) =  -226.393842602     A.U. after   11 cycles
 SCF Done:  E(RHF) =  -226.393843588     A.U. after   10 cycles
 SCF Done:  E(RHF) =  -226.393843636     A.U. after    8 cycles
 SCF Done:  E(RHF) =  -226.393843637     A.U. after    6 cycles
 Optimization completed.
    -- Stationary point found.

                          Input orientation:
 ---------------------------------------------------------------------
 Center     Atomic      Atomic             Coordinates (Angstroms)
 Number     Number       Type             X           Y           Z
 ---------------------------------------------------------------------
      1          6           0        0.732681    0.597296    0.058950
      2          6           0        1.394975   -0.527535   -0.025928
      3          1           0        1.190803    1.563656    0.094701
      4          1           0        2.465458   -0.525029   -0.032620
      5          1           0        0.891692   -1.471324   -0.047483
      6          8           0       -0.665855    0.704373    0.023398
      7          8           0       -1.222585   -0.254476    0.991622
      8          1           0       -2.126497   -0.318685    0.639087
 ---------------------------------------------------------------------

 Alpha  occ. eigenvalues --  -20.52706 -20.52105 -11.23774 -11.16773  -1.46621
 Alpha  occ. eigenvalues --   -1.23327  -1.02940  -0.78850  -0.70478  -0.67228
 Alpha  occ. eigenvalues --   -0.64350  -0.58119  -0.54081  -0.51734  -0.46051
 Alpha  occ. eigenvalues --   -0.36525
 Alpha virt. eigenvalues --    0.16641   0.26068   0.29282   0.30331   0.32726
 Alpha virt. eigenvalues --    0.37261   0.50191   0.57581   0.89081   0.97466
 Alpha virt. eigenvalues --    1.00279   1.07132   1.10459   1.12676   1.23013

 Mulliken charges:
               1
     1  C    0.144156
     2  C   -0.471067
     3  H    0.248563
     4  H    0.223683
     5  H    0.244778
     6  O   -0.422600
     7  O   -0.384761
     8  H    0.417246
 Sum of Mulliken charges =   0.00000

 Dipole moment (field-independent basis, Debye):
    X=             -0.0621    Y=             -0.4637    Z=             -0.4804  Tot=              0.6706
 Quadrupole moment (field-independent basis, Debye-Ang):
   XX=            -16.2130   YY=            -22.2771   ZZ=            -26.9111
   XY=              2.3409   XZ=             -0.3154   YZ=              0.3664

 Normal termination of Gaussian 09 at Fri Apr 12 17:10:48 2019.
