 Gaussian 09, Revision D.01,
 Gaussian 09:  AS64L-G09RevD.01 24-Apr-2013

 --------------------------------------------------------------------
 #p hf 3-21g scf=tight NoSymmetry guess=read opt=(tight,modredundant)
 --------------------------------------------------------------------

 -----------------------------------
 Geometry optimization at the 2D-PES
 -----------------------------------
 Symbolic Z-matrix:
 Charge =  0 Multiplicity = 1

 SCF Done:  E(RHF) =  -226.381231706     A.U. after   13 cycles
 SCF Done:  E(RHF) =  -226.381237184     A.U. after   12 cycles
 SCF Done:  E(RHF) =  -226.381238968     A.U. after   11 cycles
 SCF Done:  E(RHF) =  -226.381239017     A.U. after    8 cycles
 SCF Done:  E(RHF) =  -226.381239026     A.U. after    7 cycles
 Optimization completed.
    -- Stationary point found.

                          Input orientation:
 ---------------------------------------------------------------------
 Center     Atomic      Atomic             Coordinates (Angstroms)
 Number     Number       Type             X           Y           Z
 ---------------------------------------------------------------------
      1          6           0        0.751061    0.610866    0.036287
      2          6           0        1.402265   -0.525415   -0.018778
      3          1           0        1.221816    1.571466    0.074129
      4          1           0        2.472984   -0.542467   -0.013607
      5          1           0        0.881770   -1.460518   -0.079214
      6          8           0       -0.657146    0.681076    0.009913
      7          8           0       -1.234019    0.156932    1.267204
      8          1           0       -0.462052    0.048387    1.853952
 ---------------------------------------------------------------------

 Alpha  occ. eigenvalues --  -20.52782 -20.51993 -11.25272 -11.19541  -1.46414
 Alpha  occ. eigenvalues --   -1.23383  -1.05127  -0.81210  -0.71604  -0.67996
 Alpha  occ. eigenvalues --   -0.60064  -0.59508  -0.57061  -0.52610  -0.44689
 Alpha  occ. eigenvalues --   -0.39426
 Alpha virt. eigenvalues --    0.13695   0.26213   0.27541   0.28873   0.30545
 Alpha virt. eigenvalues --    0.36557   0.49697   0.55008   0.87248   0.96704
 Alpha virt. eigenvalues --    0.97785   1.04513   1.08254   1.10960   1.23469

 Mulliken charges:
               1
     1  C    0.070818
     2  C   -0.460056
     3  H    0.249864
     4  H    0.236400
     5  H    0.257553
     6  O   -0.380959
     7  O   -0.371756
     8  H    0.398136
 Sum of Mulliken charges =   0.00000

 Dipole moment (field-independent basis, Debye):
    X=              3.6443    Y=             -0.5765    Z=              1.3093  Tot=              3.9150
 Quadrupole moment (field-independent basis, Debye-Ang):
   XX=            -25.3974   YY=            -22.2343   ZZ=            -21.6976
   XY=              1.4542   XZ=              1.3834   YZ=              0.0379

 Normal termination of Gaussian 09 at Fri Apr 12 16:49:38 2019.
