 Gaussian 09, Revision D.01,
 Gaussian 09:  AS64L-G09RevD.01 24-Apr-2013

 --------------------------------------------------------------------
 #p hf 3-21g scf=tight NoSymmetry guess=read opt=(tight,modredundant)
 --------------------------------------------------------------------

 -----------------------------------
 Geometry optimization at the 2D-PES
 -----------------------------------
 Symbolic Z-matrix:
 Charge =  0 Multiplicity = 1

 SCF Done:  E(RHF) =  -226.381127131     A.U. after   13 cycles
 SCF Done:  E(RHF) =  -226.381130678     A.U. after   10 cycles
 SCF Done:  E(RHF) =  -226.381131381     A.U. after    9 cycles
 SCF Done:  E(RHF) =  -226.381131420     A.U. after    8 cycles
 SCF Done:  E(RHF) =  -226.381131422     A.U. after    6 cycles
 Optimization completed.
    -- Stationary point found.

                          Input orientation:
 ---------------------------------------------------------------------
 Center     Atomic      Atomic             Coordinates (Angstroms)
 Number     Number       Type             X           Y           Z
 ---------------------------------------------------------------------
      1          6           0        0.753717    0.622622    0.037669
      2          6           0        1.390026   -0.521188   -0.006396
      3          1           0        1.234919    1.579061    0.081172
      4          1           0        2.460600   -0.554255   -0.013244
      5          1           0        0.852145   -1.446168   -0.058471
      6          8           0       -0.654850    0.672394   -0.008572
      7          8           0       -1.199622    0.852271    1.357593
      8          1           0       -0.412169    0.888107    1.931992
 ---------------------------------------------------------------------

 Alpha  occ. eigenvalues --  -20.52793 -20.51799 -11.25032 -11.19655  -1.46236
 Alpha  occ. eigenvalues --   -1.23391  -1.04889  -0.81392  -0.71572  -0.67667
 Alpha  occ. eigenvalues --   -0.60267  -0.59108  -0.56992  -0.52618  -0.43994
 Alpha  occ. eigenvalues --   -0.39918
 Alpha virt. eigenvalues --    0.13515   0.26609   0.27551   0.29412   0.30897
 Alpha virt. eigenvalues --    0.35841   0.49017   0.55283   0.87310   0.96507
 Alpha virt. eigenvalues --    0.97576   1.05309   1.08660   1.11221   1.24233

 Mulliken charges:
               1
     1  C    0.059446
     2  C   -0.442312
     3  H    0.241705
     4  H    0.234903
     5  H    0.259938
     6  O   -0.375699
     7  O   -0.375844
     8  H    0.397863
 Sum of Mulliken charges =   0.00000

 Dipole moment (field-independent basis, Debye):
    X=              3.7200    Y=             -0.3367    Z=              1.2728  Tot=              3.9461
 Quadrupole moment (field-independent basis, Debye-Ang):
   XX=            -25.2808   YY=            -22.0242   ZZ=            -21.6218
   XY=              2.2819   XZ=              1.6419   YZ=              1.4507

 Normal termination of Gaussian 09 at Fri Apr 12 16:34:46 2019.
