 Gaussian 09, Revision D.01,
 Gaussian 09:  AS64L-G09RevD.01 24-Apr-2013

 --------------------------------------------------------------------
 #p hf 3-21g scf=tight NoSymmetry guess=read opt=(tight,modredundant)
 --------------------------------------------------------------------

 -----------------------------------
 Geometry optimization at the 2D-PES
 -----------------------------------
 Symbolic Z-matrix:
 Charge =  0 Multiplicity = 1

 SCF Done:  E(RHF) =  -226.395430574     A.U. after   13 cycles
 SCF Done:  E(RHF) =  -226.395437176     A.U. after   11 cycles
 SCF Done:  E(RHF) =  -226.395441190     A.U. after   10 cycles
 SCF Done:  E(RHF) =  -226.395441242     A.U. after    8 cycles
 SCF Done:  E(RHF) =  -226.395441247     A.U. after    7 cycles
 Optimization completed.
    -- Stationary point found.

                          Input orientation:
 ---------------------------------------------------------------------
 Center     Atomic      Atomic             Coordinates (Angstroms)
 Number     Number       Type             X           Y           Z
 ---------------------------------------------------------------------
      1          6           0        0.726917    0.638681    0.022320
      2          6           0        1.368811   -0.501452   -0.020603
      3          1           0        1.184114    1.602163    0.078610
      4          1           0        2.437890   -0.523170    0.026578
      5          1           0        0.846172   -1.434070   -0.084300
      6          8           0       -0.675488    0.670236    0.052605
      7          8           0       -1.079375    1.914282   -0.609953
      8          1           0       -1.611822    1.558284   -1.341723
 ---------------------------------------------------------------------

 Alpha  occ. eigenvalues --  -20.53557 -20.52630 -11.24310 -11.16897  -1.47697
 Alpha  occ. eigenvalues --   -1.23892  -1.02999  -0.79796  -0.71649  -0.66394
 Alpha  occ. eigenvalues --   -0.63247  -0.60726  -0.55425  -0.49382  -0.48358
 Alpha  occ. eigenvalues --   -0.36770
 Alpha virt. eigenvalues --    0.18033   0.23967   0.27725   0.31663   0.33528
 Alpha virt. eigenvalues --    0.35881   0.49553   0.57340   0.90039   0.96889
 Alpha virt. eigenvalues --    0.99950   1.06565   1.10651   1.12612   1.22067

 Mulliken charges:
               1
     1  C    0.154376
     2  C   -0.500413
     3  H    0.259145
     4  H    0.227632
     5  H    0.238220
     6  O   -0.409289
     7  O   -0.386397
     8  H    0.416727
 Sum of Mulliken charges =   0.00000

 Dipole moment (field-independent basis, Debye):
    X=              0.6649    Y=             -0.4413    Z=             -1.6945  Tot=              1.8730
 Quadrupole moment (field-independent basis, Debye-Ang):
   XX=            -20.0283   YY=            -24.4114   ZZ=            -22.4697
   XY=              0.3559   XZ=              3.7948   YZ=             -1.9274

 Normal termination of Gaussian 09 at Fri Apr 12 15:28:47 2019.
