 Gaussian 09, Revision D.01,
 Gaussian 09:  AS64L-G09RevD.01 24-Apr-2013

 --------------------------------------------------------------------
 #p hf 3-21g scf=tight NoSymmetry guess=read opt=(tight,modredundant)
 --------------------------------------------------------------------

 -----------------------------------
 Geometry optimization at the 2D-PES
 -----------------------------------
 Symbolic Z-matrix:
 Charge =  0 Multiplicity = 1

 SCF Done:  E(RHF) =  -226.395848461     A.U. after   13 cycles
 SCF Done:  E(RHF) =  -226.395850729     A.U. after   10 cycles
 SCF Done:  E(RHF) =  -226.395851870     A.U. after   10 cycles
 SCF Done:  E(RHF) =  -226.395851907     A.U. after    8 cycles
 SCF Done:  E(RHF) =  -226.395851908     A.U. after    6 cycles
 Optimization completed.
    -- Stationary point found.

                          Input orientation:
 ---------------------------------------------------------------------
 Center     Atomic      Atomic             Coordinates (Angstroms)
 Number     Number       Type             X           Y           Z
 ---------------------------------------------------------------------
      1          6           0        0.726083    0.633505    0.052098
      2          6           0        1.367202   -0.506107    0.004768
      3          1           0        1.185816    1.595248    0.128705
      4          1           0        2.437366   -0.529874   -0.008141
      5          1           0        0.837921   -1.435735   -0.039972
      6          8           0       -0.672873    0.669427   -0.026798
      7          8           0       -1.107843    1.509194    1.103237
      8          1           0       -1.996134    1.746287    0.788176
 ---------------------------------------------------------------------

 Alpha  occ. eigenvalues --  -20.52937 -20.51976 -11.23885 -11.17061  -1.46816
 Alpha  occ. eigenvalues --   -1.23519  -1.02804  -0.79435  -0.69180  -0.68550
 Alpha  occ. eigenvalues --   -0.64552  -0.56966  -0.55529  -0.51583  -0.45945
 Alpha  occ. eigenvalues --   -0.36939
 Alpha virt. eigenvalues --    0.16916   0.26131   0.28568   0.31739   0.32601
 Alpha virt. eigenvalues --    0.36146   0.49591   0.57287   0.89880   0.97377
 Alpha virt. eigenvalues --    1.00016   1.07035   1.10781   1.12407   1.23390

 Mulliken charges:
               1
     1  C    0.160451
     2  C   -0.480727
     3  H    0.245577
     4  H    0.226244
     5  H    0.243080
     6  O   -0.418964
     7  O   -0.393373
     8  H    0.417712
 Sum of Mulliken charges =   0.00000

 Dipole moment (field-independent basis, Debye):
    X=              0.0130    Y=              0.5719    Z=             -0.4164  Tot=              0.7076
 Quadrupole moment (field-independent basis, Debye-Ang):
   XX=            -16.8737   YY=            -20.2286   ZZ=            -27.0101
   XY=             -2.8679   XZ=             -0.8627   YZ=             -0.2264

 Normal termination of Gaussian 09 at Fri Apr 12 16:11:21 2019.
