 Gaussian 09, Revision D.01,
 Gaussian 09:  AS64L-G09RevD.01 24-Apr-2013

 --------------------------------------------------------------------
 #p hf 3-21g scf=tight NoSymmetry guess=read opt=(tight,modredundant)
 --------------------------------------------------------------------

 -----------------------------------
 Geometry optimization at the 2D-PES
 -----------------------------------
 Symbolic Z-matrix:
 Charge =  0 Multiplicity = 1

 SCF Done:  E(RHF) =  -226.383263252     A.U. after   13 cycles
 SCF Done:  E(RHF) =  -226.383286603     A.U. after   13 cycles
 SCF Done:  E(RHF) =  -226.383304159     A.U. after   12 cycles
 SCF Done:  E(RHF) =  -226.383304398     A.U. after   10 cycles
 SCF Done:  E(RHF) =  -226.383304459     A.U. after    9 cycles
 SCF Done:  E(RHF) =  -226.383304461     A.U. after    7 cycles
 Optimization completed.
    -- Stationary point found.

                          Input orientation:
 ---------------------------------------------------------------------
 Center     Atomic      Atomic             Coordinates (Angstroms)
 Number     Number       Type             X           Y           Z
 ---------------------------------------------------------------------
      1          6           0        0.754339    0.635905    0.015739
      2          6           0        1.383235   -0.511497   -0.011787
      3          1           0        1.237539    1.587611    0.113136
      4          1           0        2.451143   -0.548511    0.051055
      5          1           0        0.845440   -1.434774   -0.082300
      6          8           0       -0.647954    0.682529    0.041564
      7          8           0       -1.125973    1.903619   -0.622858
      8          1           0       -0.448393    2.097015   -1.296738
 ---------------------------------------------------------------------

 Alpha  occ. eigenvalues --  -20.53898 -20.52839 -11.25394 -11.18297  -1.47703
 Alpha  occ. eigenvalues --   -1.24259  -1.04261  -0.81593  -0.72237  -0.66680
 Alpha  occ. eigenvalues --   -0.63534  -0.59075  -0.55134  -0.53158  -0.47502
 Alpha  occ. eigenvalues --   -0.37511
 Alpha virt. eigenvalues --    0.15557   0.23829   0.26584   0.30761   0.32793
 Alpha virt. eigenvalues --    0.35270   0.49405   0.56224   0.88440   0.96240
 Alpha virt. eigenvalues --    0.98886   1.06238   1.09636   1.10735   1.24132

 Mulliken charges:
               1
     1  C    0.098931
     2  C   -0.480708
     3  H    0.244181
     4  H    0.232509
     5  H    0.252185
     6  O   -0.377596
     7  O   -0.369786
     8  H    0.400285
 Sum of Mulliken charges =   0.00000

 Dipole moment (field-independent basis, Debye):
    X=              3.2517    Y=              0.3673    Z=             -1.4171  Tot=              3.5660
 Quadrupole moment (field-independent basis, Debye-Ang):
   XX=            -25.1118   YY=            -20.3365   ZZ=            -22.9191
   XY=              3.5579   XZ=              0.0834   YZ=             -3.1314

 Normal termination of Gaussian 09 at Fri Apr 12 15:26:24 2019.
