 Gaussian 09, Revision D.01,
 Gaussian 09:  AS64L-G09RevD.01 24-Apr-2013

 --------------------------------------------------------------------
 #p hf 3-21g scf=tight NoSymmetry guess=read opt=(tight,modredundant)
 --------------------------------------------------------------------

 -----------------------------------
 Geometry optimization at the 2D-PES
 -----------------------------------
 Symbolic Z-matrix:
 Charge =  0 Multiplicity = 1

 SCF Done:  E(RHF) =  -226.398421589     A.U. after   13 cycles
 SCF Done:  E(RHF) =  -226.398425099     A.U. after   11 cycles
 SCF Done:  E(RHF) =  -226.398431447     A.U. after   11 cycles
 SCF Done:  E(RHF) =  -226.398431503     A.U. after    9 cycles
 SCF Done:  E(RHF) =  -226.398431509     A.U. after    7 cycles
 Optimization completed.
    -- Stationary point found.

                          Input orientation:
 ---------------------------------------------------------------------
 Center     Atomic      Atomic             Coordinates (Angstroms)
 Number     Number       Type             X           Y           Z
 ---------------------------------------------------------------------
      1          6           0        0.734624    0.571769    0.026829
      2          6           0        1.424824   -0.536338   -0.057153
      3          1           0        1.165436    1.548812    0.104098
      4          1           0        2.494251   -0.494794   -0.057351
      5          1           0        0.951262   -1.490734   -0.121595
      6          8           0       -0.652211    0.710405    0.046270
      7          8           0       -1.275927   -0.607804   -0.043726
      8          1           0       -2.012200   -0.395354   -0.641195
 ---------------------------------------------------------------------

 Alpha  occ. eigenvalues --  -20.53985 -20.52844 -11.24253 -11.15715  -1.48052
 Alpha  occ. eigenvalues --   -1.24126  -1.02806  -0.79233  -0.71540  -0.66706
 Alpha  occ. eigenvalues --   -0.64381  -0.59827  -0.53748  -0.50940  -0.48591
 Alpha  occ. eigenvalues --   -0.35618
 Alpha virt. eigenvalues --    0.20292   0.22712   0.28699   0.30338   0.34168
 Alpha virt. eigenvalues --    0.37409   0.50010   0.59189   0.89276   0.97195
 Alpha virt. eigenvalues --    1.01717   1.07560   1.10695   1.13090   1.22443

 Mulliken charges:
               1
     1  C    0.154399
     2  C   -0.508883
     3  H    0.257921
     4  H    0.218466
     5  H    0.253841
     6  O   -0.417672
     7  O   -0.380724
     8  H    0.422652
 Sum of Mulliken charges =   0.00000

 Dipole moment (field-independent basis, Debye):
    X=             -0.0259    Y=              0.2428    Z=             -1.3199  Tot=              1.3423
 Quadrupole moment (field-independent basis, Debye-Ang):
   XX=            -17.8447   YY=            -22.8389   ZZ=            -24.8279
   XY=              1.7541   XZ=              3.0204   YZ=              0.7634

 Normal termination of Gaussian 09 at Fri Apr 12 17:58:31 2019.
