 Gaussian 09, Revision D.01,
 Gaussian 09:  AS64L-G09RevD.01 24-Apr-2013

 --------------------------------------------------------------------
 #p hf 3-21g scf=tight NoSymmetry guess=read opt=(tight,modredundant)
 --------------------------------------------------------------------

 -----------------------------------
 Geometry optimization at the 2D-PES
 -----------------------------------
 Symbolic Z-matrix:
 Charge =  0 Multiplicity = 1

 SCF Done:  E(RHF) =  -226.393536539     A.U. after   13 cycles
 SCF Done:  E(RHF) =  -226.393538526     A.U. after   11 cycles
 SCF Done:  E(RHF) =  -226.393539717     A.U. after   10 cycles
 SCF Done:  E(RHF) =  -226.393539746     A.U. after    7 cycles
 SCF Done:  E(RHF) =  -226.393539748     A.U. after    6 cycles
 Optimization completed.
    -- Stationary point found.

                          Input orientation:
 ---------------------------------------------------------------------
 Center     Atomic      Atomic             Coordinates (Angstroms)
 Number     Number       Type             X           Y           Z
 ---------------------------------------------------------------------
      1          6           0        0.725403    0.627603    0.041104
      2          6           0        1.369999   -0.509397    0.000758
      3          1           0        1.191387    1.586304    0.129882
      4          1           0        2.440544   -0.533947    0.013686
      5          1           0        0.841225   -1.438626   -0.058405
      6          8           0       -0.680166    0.665274   -0.027544
      7          8           0       -1.144060    0.832792    1.364988
      8          1           0       -1.966886    1.324014    1.199371
 ---------------------------------------------------------------------

 Alpha  occ. eigenvalues --  -20.52283 -20.51506 -11.23565 -11.17586  -1.46053
 Alpha  occ. eigenvalues --   -1.22947  -1.03005  -0.79151  -0.69580  -0.67417
 Alpha  occ. eigenvalues --   -0.64597  -0.57253  -0.55054  -0.50954  -0.44145
 Alpha  occ. eigenvalues --   -0.38250
 Alpha virt. eigenvalues --    0.15731   0.27596   0.29013   0.31003   0.32175
 Alpha virt. eigenvalues --    0.36358   0.49364   0.56933   0.89136   0.97537
 Alpha virt. eigenvalues --    0.99197   1.07265   1.10577   1.12708   1.23021

 Mulliken charges:
               1
     1  C    0.141014
     2  C   -0.452440
     3  H    0.233038
     4  H    0.226420
     5  H    0.248626
     6  O   -0.417061
     7  O   -0.392479
     8  H    0.412882
 Sum of Mulliken charges =   0.00000

 Dipole moment (field-independent basis, Debye):
    X=              0.3185    Y=              0.8079    Z=             -0.0509  Tot=              0.8699
 Quadrupole moment (field-independent basis, Debye-Ang):
   XX=            -17.2829   YY=            -19.8063   ZZ=            -26.5665
   XY=             -2.6306   XZ=             -1.8037   YZ=              1.4055

 Normal termination of Gaussian 09 at Fri Apr 12 16:29:40 2019.
