 Gaussian 09, Revision D.01,
 Gaussian 09:  AS64L-G09RevD.01 24-Apr-2013

 --------------------------------------------------------------------
 #p hf 3-21g scf=tight NoSymmetry guess=read opt=(tight,modredundant)
 --------------------------------------------------------------------

 -----------------------------------
 Geometry optimization at the 2D-PES
 -----------------------------------
 Symbolic Z-matrix:
 Charge =  0 Multiplicity = 1

 SCF Done:  E(RHF) =  -226.392437170     A.U. after   13 cycles
 SCF Done:  E(RHF) =  -226.392448138     A.U. after   12 cycles
 SCF Done:  E(RHF) =  -226.392455923     A.U. after   10 cycles
 SCF Done:  E(RHF) =  -226.392455996     A.U. after    8 cycles
 SCF Done:  E(RHF) =  -226.392456001     A.U. after    8 cycles
 Optimization completed.
    -- Stationary point found.

                          Input orientation:
 ---------------------------------------------------------------------
 Center     Atomic      Atomic             Coordinates (Angstroms)
 Number     Number       Type             X           Y           Z
 ---------------------------------------------------------------------
      1          6           0        0.736611    0.591982    0.064443
      2          6           0        1.405988   -0.528056   -0.028489
      3          1           0        1.191946    1.559714    0.092631
      4          1           0        2.476137   -0.517302   -0.046390
      5          1           0        0.916957   -1.479939   -0.043072
      6          8           0       -0.663893    0.702179    0.033856
      7          8           0       -1.246195   -0.248436    0.986803
      8          1           0       -1.786507   -0.789373    0.385842
 ---------------------------------------------------------------------

 Alpha  occ. eigenvalues --  -20.53050 -20.52470 -11.24164 -11.17224  -1.47135
 Alpha  occ. eigenvalues --   -1.23511  -1.03448  -0.79267  -0.69787  -0.69180
 Alpha  occ. eigenvalues --   -0.64929  -0.57177  -0.54485  -0.51132  -0.47353
 Alpha  occ. eigenvalues --   -0.37005
 Alpha virt. eigenvalues --    0.16334   0.25070   0.29227   0.29840   0.32480
 Alpha virt. eigenvalues --    0.37113   0.49968   0.57251   0.88706   0.96955
 Alpha virt. eigenvalues --    0.99567   1.06722   1.09918   1.12542   1.23141

 Mulliken charges:
               1
     1  C    0.145261
     2  C   -0.476318
     3  H    0.252151
     4  H    0.227781
     5  H    0.229504
     6  O   -0.414347
     7  O   -0.377071
     8  H    0.413039
 Sum of Mulliken charges =   0.00000

 Dipole moment (field-independent basis, Debye):
    X=              0.6985    Y=             -1.3840    Z=             -0.9984  Tot=              1.8440
 Quadrupole moment (field-independent basis, Debye-Ang):
   XX=            -19.3636   YY=            -21.0923   ZZ=            -27.4019
   XY=              4.0365   XZ=              1.1957   YZ=              0.1961

 Normal termination of Gaussian 09 at Fri Apr 12 17:11:57 2019.
