 Gaussian 09, Revision D.01,
 Gaussian 09:  AS64L-G09RevD.01 24-Apr-2013

 --------------------------------------------------------------------
 #p hf 3-21g scf=tight NoSymmetry guess=read opt=(tight,modredundant)
 --------------------------------------------------------------------

 -----------------------------------
 Geometry optimization at the 2D-PES
 -----------------------------------
 Symbolic Z-matrix:
 Charge =  0 Multiplicity = 1

 SCF Done:  E(RHF) =  -226.383322983     A.U. after   13 cycles
 SCF Done:  E(RHF) =  -226.383306670     A.U. after   13 cycles
 SCF Done:  E(RHF) =  -226.383464663     A.U. after   12 cycles
 SCF Done:  E(RHF) =  -226.383465665     A.U. after   11 cycles
 SCF Done:  E(RHF) =  -226.383465736     A.U. after   10 cycles
 SCF Done:  E(RHF) =  -226.383465751     A.U. after    8 cycles
 Optimization completed.
    -- Stationary point found.

                          Input orientation:
 ---------------------------------------------------------------------
 Center     Atomic      Atomic             Coordinates (Angstroms)
 Number     Number       Type             X           Y           Z
 ---------------------------------------------------------------------
      1          6           0        0.751344    0.557908    0.008619
      2          6           0        1.479447   -0.531248   -0.059102
      3          1           0        1.175463    1.536990    0.087299
      4          1           0        2.545441   -0.446314   -0.041062
      5          1           0        1.090246   -1.521696   -0.177269
      6          8           0       -0.629083    0.695851    0.045656
      7          8           0       -1.380232   -0.555578    0.002915
      8          1           0       -0.747005   -1.240541    0.278043
 ---------------------------------------------------------------------

 Alpha  occ. eigenvalues --  -20.55015 -20.53465 -11.26649 -11.18248  -1.48884
 Alpha  occ. eigenvalues --   -1.25237  -1.05417  -0.81569  -0.73554  -0.68295
 Alpha  occ. eigenvalues --   -0.64834  -0.58416  -0.54845  -0.54136  -0.49353
 Alpha  occ. eigenvalues --   -0.37328
 Alpha virt. eigenvalues --    0.18186   0.20816   0.26797   0.27442   0.35693
 Alpha virt. eigenvalues --    0.36837   0.49223   0.60412   0.87965   0.95291
 Alpha virt. eigenvalues --    1.01320   1.05400   1.07768   1.10788   1.23830

 Mulliken charges:
               1
     1  C    0.152166
     2  C   -0.543350
     3  H    0.275115
     4  H    0.242058
     5  H    0.209588
     6  O   -0.389696
     7  O   -0.362630
     8  H    0.416747
 Sum of Mulliken charges =   0.00000

 Dipole moment (field-independent basis, Debye):
    X=              2.8511    Y=             -1.2745    Z=              0.5120  Tot=              3.1647
 Quadrupole moment (field-independent basis, Debye-Ang):
   XX=            -25.7553   YY=            -19.6437   ZZ=            -25.6858
   XY=              2.1686   XZ=             -0.3341   YZ=             -0.4902

 Normal termination of Gaussian 09 at Fri Apr 12 18:04:01 2019.
