 Gaussian 09, Revision D.01,
 Gaussian 09:  AS64L-G09RevD.01 24-Apr-2013

 --------------------------------------------------------------------
 #p hf 3-21g scf=tight NoSymmetry guess=read opt=(tight,modredundant)
 --------------------------------------------------------------------

 -----------------------------------
 Geometry optimization at the 2D-PES
 -----------------------------------
 Symbolic Z-matrix:
 Charge =  0 Multiplicity = 1

 SCF Done:  E(RHF) =  -226.391194740     A.U. after   13 cycles
 SCF Done:  E(RHF) =  -226.391205495     A.U. after   11 cycles
 SCF Done:  E(RHF) =  -226.391210950     A.U. after   10 cycles
 SCF Done:  E(RHF) =  -226.391211019     A.U. after    9 cycles
 SCF Done:  E(RHF) =  -226.391211031     A.U. after    7 cycles
 Optimization completed.
    -- Stationary point found.

                          Input orientation:
 ---------------------------------------------------------------------
 Center     Atomic      Atomic             Coordinates (Angstroms)
 Number     Number       Type             X           Y           Z
 ---------------------------------------------------------------------
      1          6           0        0.734696    0.626130    0.043608
      2          6           0        1.376696   -0.511754   -0.000760
      3          1           0        1.208664    1.583739    0.116647
      4          1           0        2.447270   -0.540018    0.003911
      5          1           0        0.843523   -1.438778   -0.054742
      6          8           0       -0.674609    0.669941   -0.019485
      7          8           0       -1.164944    0.836691    1.358032
      8          1           0       -1.351206    1.792204    1.380037
 ---------------------------------------------------------------------

 Alpha  occ. eigenvalues --  -20.52649 -20.51885 -11.23893 -11.17929  -1.46563
 Alpha  occ. eigenvalues --   -1.23047  -1.03398  -0.79882  -0.69668  -0.68079
 Alpha  occ. eigenvalues --   -0.64038  -0.57767  -0.55984  -0.48209  -0.46548
 Alpha  occ. eigenvalues --   -0.38562
 Alpha virt. eigenvalues --    0.15491   0.26328   0.28376   0.30968   0.32408
 Alpha virt. eigenvalues --    0.35957   0.49206   0.56528   0.88559   0.97217
 Alpha virt. eigenvalues --    0.98392   1.06656   1.10021   1.11983   1.24408

 Mulliken charges:
               1
     1  C    0.124002
     2  C   -0.449650
     3  H    0.225169
     4  H    0.227136
     5  H    0.253206
     6  O   -0.400937
     7  O   -0.382820
     8  H    0.403894
 Sum of Mulliken charges =   0.00000

 Dipole moment (field-independent basis, Debye):
    X=              1.6588    Y=              1.6708    Z=              0.3142  Tot=              2.3753
 Quadrupole moment (field-independent basis, Debye-Ang):
   XX=            -21.9713   YY=            -16.6693   ZZ=            -25.5497
   XY=             -2.1948   XZ=             -0.7014   YZ=              3.2697

 Normal termination of Gaussian 09 at Fri Apr 12 16:31:51 2019.
