 Gaussian 09, Revision D.01,
 Gaussian 09:  AS64L-G09RevD.01 24-Apr-2013

 --------------------------------------------------------------------
 #p hf 3-21g scf=tight NoSymmetry guess=read opt=(tight,modredundant)
 --------------------------------------------------------------------

 -----------------------------------
 Geometry optimization at the 2D-PES
 -----------------------------------
 Symbolic Z-matrix:
 Charge =  0 Multiplicity = 1

 SCF Done:  E(RHF) =  -226.380569773     A.U. after   13 cycles
 SCF Done:  E(RHF) =  -226.380587984     A.U. after   13 cycles
 SCF Done:  E(RHF) =  -226.380615419     A.U. after   12 cycles
 SCF Done:  E(RHF) =  -226.380615649     A.U. after    9 cycles
 SCF Done:  E(RHF) =  -226.380615704     A.U. after    9 cycles
 SCF Done:  E(RHF) =  -226.380615707     A.U. after    7 cycles
 Optimization completed.
    -- Stationary point found.

                          Input orientation:
 ---------------------------------------------------------------------
 Center     Atomic      Atomic             Coordinates (Angstroms)
 Number     Number       Type             X           Y           Z
 ---------------------------------------------------------------------
      1          6           0        0.761812    0.632780    0.016644
      2          6           0        1.384190   -0.518065   -0.010252
      3          1           0        1.260388    1.576744    0.118537
      4          1           0        2.452116   -0.559236    0.046383
      5          1           0        0.842238   -1.438810   -0.079991
      6          8           0       -0.638447    0.691420    0.039632
      7          8           0       -1.129665    2.003789   -0.400664
      8          1           0       -0.391304    2.396817   -0.900673
 ---------------------------------------------------------------------

 Alpha  occ. eigenvalues --  -20.54058 -20.53069 -11.25709 -11.18002  -1.47861
 Alpha  occ. eigenvalues --   -1.24524  -1.04238  -0.81929  -0.72125  -0.66838
 Alpha  occ. eigenvalues --   -0.63733  -0.58942  -0.55116  -0.53315  -0.48260
 Alpha  occ. eigenvalues --   -0.36983
 Alpha virt. eigenvalues --    0.16303   0.22944   0.25233   0.30876   0.33580
 Alpha virt. eigenvalues --    0.35360   0.50265   0.56242   0.88575   0.96046
 Alpha virt. eigenvalues --    0.99150   1.05970   1.09754   1.11015   1.23454

 Mulliken charges:
               1
     1  C    0.110722
     2  C   -0.486560
     3  H    0.236379
     4  H    0.231864
     5  H    0.251769
     6  O   -0.379057
     7  O   -0.365237
     8  H    0.400119
 Sum of Mulliken charges =   0.00000

 Dipole moment (field-independent basis, Debye):
    X=              3.3178    Y=              0.8361    Z=             -1.0481  Tot=              3.5785
 Quadrupole moment (field-independent basis, Debye-Ang):
   XX=            -25.2235   YY=            -18.2597   ZZ=            -24.3588
   XY=              3.8334   XZ=              0.0979   YZ=             -2.7606

 Normal termination of Gaussian 09 at Fri Apr 12 15:32:56 2019.
