 Gaussian 09, Revision D.01,
 Gaussian 09:  AS64L-G09RevD.01 24-Apr-2013

 --------------------------------------------------------------------
 #p hf 3-21g scf=tight NoSymmetry guess=read opt=(tight,modredundant)
 --------------------------------------------------------------------

 -----------------------------------
 Geometry optimization at the 2D-PES
 -----------------------------------
 Symbolic Z-matrix:
 Charge =  0 Multiplicity = 1

 SCF Done:  E(RHF) =  -226.391964886     A.U. after   13 cycles
 SCF Done:  E(RHF) =  -226.391969359     A.U. after   11 cycles
 SCF Done:  E(RHF) =  -226.391972521     A.U. after   10 cycles
 SCF Done:  E(RHF) =  -226.391972557     A.U. after    8 cycles
 SCF Done:  E(RHF) =  -226.391972559     A.U. after    6 cycles
 Optimization completed.
    -- Stationary point found.

                          Input orientation:
 ---------------------------------------------------------------------
 Center     Atomic      Atomic             Coordinates (Angstroms)
 Number     Number       Type             X           Y           Z
 ---------------------------------------------------------------------
      1          6           0        0.730459    0.613459    0.044407
      2          6           0        1.380579   -0.519537   -0.012773
      3          1           0        1.200139    1.573153    0.107749
      4          1           0        2.451232   -0.535670    0.003748
      5          1           0        0.860846   -1.454402   -0.061737
      6          8           0       -0.675269    0.685250   -0.006275
      7          8           0       -1.187841    0.130385    1.262334
      8          1           0       -2.005964    0.650912    1.339940
 ---------------------------------------------------------------------

 Alpha  occ. eigenvalues --  -20.52149 -20.51576 -11.23510 -11.17347  -1.45951
 Alpha  occ. eigenvalues --   -1.22864  -1.02990  -0.78958  -0.70359  -0.65631
 Alpha  occ. eigenvalues --   -0.64518  -0.58959  -0.54878  -0.50197  -0.44308
 Alpha  occ. eigenvalues --   -0.37843
 Alpha virt. eigenvalues --    0.15729   0.26895   0.29465   0.30691   0.32310
 Alpha virt. eigenvalues --    0.36918   0.49914   0.57011   0.88892   0.97689
 Alpha virt. eigenvalues --    0.98965   1.07118   1.10526   1.12675   1.23525

 Mulliken charges:
               1
     1  C    0.134165
     2  C   -0.451164
     3  H    0.236456
     4  H    0.225067
     5  H    0.250966
     6  O   -0.420334
     7  O   -0.388987
     8  H    0.413830
 Sum of Mulliken charges =   0.00000

 Dipole moment (field-independent basis, Debye):
    X=              0.2995    Y=              0.7312    Z=              0.4877  Tot=              0.9286
 Quadrupole moment (field-independent basis, Debye-Ang):
   XX=            -17.1330   YY=            -21.3829   ZZ=            -25.1441
   XY=             -1.4152   XZ=             -2.7053   YZ=              1.9259

 Normal termination of Gaussian 09 at Fri Apr 12 16:53:24 2019.
