 Gaussian 09, Revision D.01,
 Gaussian 09:  AS64L-G09RevD.01 24-Apr-2013

 --------------------------------------------------------------------
 #p hf 3-21g scf=tight NoSymmetry guess=read opt=(tight,modredundant)
 --------------------------------------------------------------------

 -----------------------------------
 Geometry optimization at the 2D-PES
 -----------------------------------
 Symbolic Z-matrix:
 Charge =  0 Multiplicity = 1

 SCF Done:  E(RHF) =  -226.380958306     A.U. after   14 cycles
 SCF Done:  E(RHF) =  -226.380982187     A.U. after   11 cycles
 SCF Done:  E(RHF) =  -226.380991610     A.U. after   10 cycles
 SCF Done:  E(RHF) =  -226.380991845     A.U. after    8 cycles
 SCF Done:  E(RHF) =  -226.380991877     A.U. after    7 cycles
 SCF Done:  E(RHF) =  -226.380991878     A.U. after    6 cycles
 Optimization completed.
    -- Stationary point found.

                          Input orientation:
 ---------------------------------------------------------------------
 Center     Atomic      Atomic             Coordinates (Angstroms)
 Number     Number       Type             X           Y           Z
 ---------------------------------------------------------------------
      1          6           0        0.757238    0.634229    0.019889
      2          6           0        1.389742   -0.511024   -0.008252
      3          1           0        1.242097    1.587084    0.111128
      4          1           0        2.457201   -0.549524    0.065337
      5          1           0        0.850373   -1.432922   -0.083967
      6          8           0       -0.646207    0.678674    0.039128
      7          8           0       -1.152233    1.601275   -0.997234
      8          1           0       -0.355787    1.949861   -1.438334
 ---------------------------------------------------------------------

 Alpha  occ. eigenvalues --  -20.53466 -20.52305 -11.25327 -11.18935  -1.46950
 Alpha  occ. eigenvalues --   -1.23993  -1.04530  -0.81769  -0.71680  -0.67544
 Alpha  occ. eigenvalues --   -0.61546  -0.59389  -0.56024  -0.52871  -0.46113
 Alpha  occ. eigenvalues --   -0.38324
 Alpha virt. eigenvalues --    0.14523   0.25043   0.26625   0.30223   0.32443
 Alpha virt. eigenvalues --    0.35228   0.49369   0.55811   0.87909   0.96012
 Alpha virt. eigenvalues --    0.98769   1.06082   1.09350   1.11048   1.23960

 Mulliken charges:
               1
     1  C    0.083427
     2  C   -0.460982
     3  H    0.236084
     4  H    0.233116
     5  H    0.257157
     6  O   -0.374727
     7  O   -0.372784
     8  H    0.398710
 Sum of Mulliken charges =   0.00000

 Dipole moment (field-independent basis, Debye):
    X=              3.6049    Y=              0.4543    Z=             -0.9590  Tot=              3.7578
 Quadrupole moment (field-independent basis, Debye-Ang):
   XX=            -25.2497   YY=            -19.5022   ZZ=            -23.4064
   XY=              3.3474   XZ=             -0.9757   YZ=             -2.4517

 Normal termination of Gaussian 09 at Fri Apr 12 15:17:40 2019.
