 Gaussian 09, Revision D.01,
 Gaussian 09:  AS64L-G09RevD.01 24-Apr-2013

 --------------------------------------------------------------------
 #p hf 3-21g scf=tight NoSymmetry guess=read opt=(tight,modredundant)
 --------------------------------------------------------------------

 -----------------------------------
 Geometry optimization at the 2D-PES
 -----------------------------------
 Symbolic Z-matrix:
 Charge =  0 Multiplicity = 1

 SCF Done:  E(RHF) =  -226.385775230     A.U. after   13 cycles
 SCF Done:  E(RHF) =  -226.385781774     A.U. after   12 cycles
 SCF Done:  E(RHF) =  -226.385789578     A.U. after   10 cycles
 SCF Done:  E(RHF) =  -226.385789594     A.U. after    9 cycles
 SCF Done:  E(RHF) =  -226.385789597     A.U. after    6 cycles
 Optimization completed.
    -- Stationary point found.

                          Input orientation:
 ---------------------------------------------------------------------
 Center     Atomic      Atomic             Coordinates (Angstroms)
 Number     Number       Type             X           Y           Z
 ---------------------------------------------------------------------
      1          6           0        0.745633    0.616094    0.042914
      2          6           0        1.391868   -0.519591   -0.012087
      3          1           0        1.219516    1.576155    0.088737
      4          1           0        2.462743   -0.543318   -0.008626
      5          1           0        0.862976   -1.449711   -0.060021
      6          8           0       -0.667078    0.680639   -0.001249
      7          8           0       -1.207026    0.369159    1.332558
      8          1           0       -0.815852    1.062655    1.895653
 ---------------------------------------------------------------------

 Alpha  occ. eigenvalues --  -20.52636 -20.51944 -11.24246 -11.18686  -1.46471
 Alpha  occ. eigenvalues --   -1.22976  -1.04105  -0.80696  -0.69573  -0.68914
 Alpha  occ. eigenvalues --   -0.60971  -0.59285  -0.57238  -0.49297  -0.45337
 Alpha  occ. eigenvalues --   -0.39222
 Alpha virt. eigenvalues --    0.14251   0.26853   0.28073   0.29698   0.31587
 Alpha virt. eigenvalues --    0.36258   0.49510   0.55885   0.87701   0.96601
 Alpha virt. eigenvalues --    0.98429   1.06224   1.09389   1.10557   1.25147

 Mulliken charges:
               1
     1  C    0.080720
     2  C   -0.439400
     3  H    0.234372
     4  H    0.229846
     5  H    0.259200
     6  O   -0.386539
     7  O   -0.375177
     8  H    0.396978
 Sum of Mulliken charges =   0.00000

 Dipole moment (field-independent basis, Debye):
    X=              2.8915    Y=              0.9391    Z=              1.3479  Tot=              3.3256
 Quadrupole moment (field-independent basis, Debye-Ang):
   XX=            -24.4740   YY=            -20.1093   ZZ=            -21.7565
   XY=              0.0907   XZ=              0.0556   YZ=              3.6023

 Normal termination of Gaussian 09 at Fri Apr 12 16:47:52 2019.
