 Gaussian 09, Revision D.01,
 Gaussian 09:  AS64L-G09RevD.01 24-Apr-2013

 --------------------------------------------------------------------
 #p hf 3-21g scf=tight NoSymmetry guess=read opt=(tight,modredundant)
 --------------------------------------------------------------------

 -----------------------------------
 Geometry optimization at the 2D-PES
 -----------------------------------
 Symbolic Z-matrix:
 Charge =  0 Multiplicity = 1

 SCF Done:  E(RHF) =  -226.384468621     A.U. after   13 cycles
 SCF Done:  E(RHF) =  -226.384488771     A.U. after   12 cycles
 SCF Done:  E(RHF) =  -226.384498888     A.U. after   11 cycles
 SCF Done:  E(RHF) =  -226.384499140     A.U. after   10 cycles
 SCF Done:  E(RHF) =  -226.384499154     A.U. after    8 cycles
 SCF Done:  E(RHF) =  -226.384499157     A.U. after    8 cycles
 Optimization completed.
    -- Stationary point found.

                          Input orientation:
 ---------------------------------------------------------------------
 Center     Atomic      Atomic             Coordinates (Angstroms)
 Number     Number       Type             X           Y           Z
 ---------------------------------------------------------------------
      1          6           0        0.739887    0.634869    0.031691
      2          6           0        1.384084   -0.504772   -0.012987
      3          1           0        1.207622    1.596661    0.079556
      4          1           0        2.454092   -0.531833    0.022424
      5          1           0        0.853527   -1.434557   -0.056238
      6          8           0       -0.669000    0.658757    0.042811
      7          8           0       -1.143147    1.191437   -1.251653
      8          1           0       -0.448739    0.920666   -1.881628
 ---------------------------------------------------------------------

 Alpha  occ. eigenvalues --  -20.53084 -20.52024 -11.25065 -11.19469  -1.46730
 Alpha  occ. eigenvalues --   -1.23495  -1.04804  -0.81167  -0.72254  -0.66812
 Alpha  occ. eigenvalues --   -0.61881  -0.59402  -0.56154  -0.52331  -0.44782
 Alpha  occ. eigenvalues --   -0.39686
 Alpha virt. eigenvalues --    0.14146   0.26339   0.27244   0.29882   0.30891
 Alpha virt. eigenvalues --    0.35716   0.48672   0.55480   0.87763   0.96798
 Alpha virt. eigenvalues --    0.97425   1.05340   1.08705   1.10954   1.23981

 Mulliken charges:
               1
     1  C    0.072634
     2  C   -0.454317
     3  H    0.246471
     4  H    0.235252
     5  H    0.255389
     6  O   -0.376976
     7  O   -0.376672
     8  H    0.398220
 Sum of Mulliken charges =   0.00000

 Dipole moment (field-independent basis, Debye):
    X=              3.4850    Y=             -0.7914    Z=             -1.3442  Tot=              3.8182
 Quadrupole moment (field-independent basis, Debye-Ang):
   XX=            -25.0858   YY=            -23.2237   ZZ=            -21.4536
   XY=              2.9289   XZ=             -0.9644   YZ=             -0.3831

 Normal termination of Gaussian 09 at Fri Apr 12 15:11:11 2019.
