 Gaussian 09, Revision D.01,
 Gaussian 09:  AS64L-G09RevD.01 24-Apr-2013

 --------------------------------------------------------------------
 #p hf 3-21g scf=tight NoSymmetry guess=read opt=(tight,modredundant)
 --------------------------------------------------------------------

 -----------------------------------
 Geometry optimization at the 2D-PES
 -----------------------------------
 Symbolic Z-matrix:
 Charge =  0 Multiplicity = 1

 SCF Done:  E(RHF) =  -226.396582148     A.U. after   13 cycles
 SCF Done:  E(RHF) =  -226.396585045     A.U. after   11 cycles
 SCF Done:  E(RHF) =  -226.396588313     A.U. after   10 cycles
 SCF Done:  E(RHF) =  -226.396588359     A.U. after    8 cycles
 SCF Done:  E(RHF) =  -226.396588361     A.U. after    6 cycles
 Optimization completed.
    -- Stationary point found.

                          Input orientation:
 ---------------------------------------------------------------------
 Center     Atomic      Atomic             Coordinates (Angstroms)
 Number     Number       Type             X           Y           Z
 ---------------------------------------------------------------------
      1          6           0        0.733103    0.579591    0.058598
      2          6           0        1.410660   -0.535444   -0.038346
      3          1           0        1.175777    1.553444    0.092554
      4          1           0        2.480498   -0.510095   -0.055380
      5          1           0        0.924858   -1.486731   -0.059426
      6          8           0       -0.658049    0.710163    0.043975
      7          8           0       -1.254566   -0.503567    0.608903
      8          1           0       -2.090695   -0.512699    0.113400
 ---------------------------------------------------------------------

 Alpha  occ. eigenvalues --  -20.53469 -20.52607 -11.24068 -11.16123  -1.47484
 Alpha  occ. eigenvalues --   -1.23837  -1.02854  -0.78990  -0.71118  -0.67177
 Alpha  occ. eigenvalues --   -0.64619  -0.58473  -0.53565  -0.52037  -0.47555
 Alpha  occ. eigenvalues --   -0.35848
 Alpha virt. eigenvalues --    0.18279   0.24541   0.28959   0.30329   0.33541
 Alpha virt. eigenvalues --    0.37384   0.50129   0.58454   0.89221   0.97335
 Alpha virt. eigenvalues --    1.01198   1.07385   1.10568   1.12947   1.22580

 Mulliken charges:
               1
     1  C    0.151528
     2  C   -0.493933
     3  H    0.255214
     4  H    0.220729
     5  H    0.247711
     6  O   -0.420058
     7  O   -0.381549
     8  H    0.420359
 Sum of Mulliken charges =   0.00000

 Dipole moment (field-independent basis, Debye):
    X=             -0.1174    Y=             -0.2812    Z=             -0.8944  Tot=              0.9449
 Quadrupole moment (field-independent basis, Debye-Ang):
   XX=            -16.8687   YY=            -22.3447   ZZ=            -26.5131
   XY=              2.6746   XZ=              1.2689   YZ=              0.7732

 Normal termination of Gaussian 09 at Fri Apr 12 17:28:31 2019.
