 Gaussian 09, Revision D.01,
 Gaussian 09:  AS64L-G09RevD.01 24-Apr-2013

 --------------------------------------------------------------------
 #p hf 3-21g scf=tight NoSymmetry guess=read opt=(tight,modredundant)
 --------------------------------------------------------------------

 -----------------------------------
 Geometry optimization at the 2D-PES
 -----------------------------------
 Symbolic Z-matrix:
 Charge =  0 Multiplicity = 1

 SCF Done:  E(RHF) =  -226.381255991     A.U. after   12 cycles
 SCF Done:  E(RHF) =  -226.381294786     A.U. after   12 cycles
 SCF Done:  E(RHF) =  -226.381296368     A.U. after   10 cycles
 SCF Done:  E(RHF) =  -226.381297433     A.U. after    9 cycles
 SCF Done:  E(RHF) =  -226.381297459     A.U. after    8 cycles
 SCF Done:  E(RHF) =  -226.381297462     A.U. after    6 cycles
 Optimization completed.
    -- Stationary point found.

                          Input orientation:
 ---------------------------------------------------------------------
 Center     Atomic      Atomic             Coordinates (Angstroms)
 Number     Number       Type             X           Y           Z
 ---------------------------------------------------------------------
      1          6           0        0.741004    0.573067    0.018409
      2          6           0        1.454501   -0.527885    0.020008
      3          1           0        1.173129    1.549484    0.084244
      4          1           0        2.521420   -0.464991    0.062791
      5          1           0        1.037027   -1.515307    0.010090
      6          8           0       -0.646858    0.692998   -0.023266
      7          8           0       -1.335942   -0.389427   -0.731566
      8          1           0       -0.654415   -1.064328   -0.891359
 ---------------------------------------------------------------------

 Alpha  occ. eigenvalues --  -20.54361 -20.53127 -11.26506 -11.18679  -1.48171
 Alpha  occ. eigenvalues --   -1.24823  -1.05518  -0.81427  -0.73463  -0.68113
 Alpha  occ. eigenvalues --   -0.63725  -0.59072  -0.54708  -0.54248  -0.48372
 Alpha  occ. eigenvalues --   -0.37655
 Alpha virt. eigenvalues --    0.16323   0.21905   0.27080   0.27831   0.34729
 Alpha virt. eigenvalues --    0.36800   0.49678   0.58923   0.87723   0.95258
 Alpha virt. eigenvalues --    1.01159   1.05233   1.07818   1.10897   1.23491

 Mulliken charges:
               1
     1  C    0.143567
     2  C   -0.533721
     3  H    0.271364
     4  H    0.243013
     5  H    0.216070
     6  O   -0.390248
     7  O   -0.363238
     8  H    0.413194
 Sum of Mulliken charges =   0.00000

 Dipole moment (field-independent basis, Debye):
    X=              3.0875    Y=             -1.3195    Z=             -0.3535  Tot=              3.3762
 Quadrupole moment (field-independent basis, Debye-Ang):
   XX=            -25.7123   YY=            -20.1130   ZZ=            -25.2307
   XY=              2.0662   XZ=             -0.5365   YZ=              1.5459

 Normal termination of Gaussian 09 at Fri Apr 12 14:56:11 2019.
