 Gaussian 09, Revision D.01,
 Gaussian 09:  AS64L-G09RevD.01 24-Apr-2013

 --------------------------------------------------------------------
 #p hf 3-21g scf=tight NoSymmetry guess=read opt=(tight,modredundant)
 --------------------------------------------------------------------

 -----------------------------------
 Geometry optimization at the 2D-PES
 -----------------------------------
 Symbolic Z-matrix:
 Charge =  0 Multiplicity = 1

 SCF Done:  E(RHF) =  -226.385051152     A.U. after   13 cycles
 SCF Done:  E(RHF) =  -226.385062844     A.U. after   12 cycles
 SCF Done:  E(RHF) =  -226.385072998     A.U. after   11 cycles
 SCF Done:  E(RHF) =  -226.385073059     A.U. after    9 cycles
 SCF Done:  E(RHF) =  -226.385073065     A.U. after    7 cycles
 Optimization completed.
    -- Stationary point found.

                          Input orientation:
 ---------------------------------------------------------------------
 Center     Atomic      Atomic             Coordinates (Angstroms)
 Number     Number       Type             X           Y           Z
 ---------------------------------------------------------------------
      1          6           0        0.748976    0.624299    0.049392
      2          6           0        1.383692   -0.517916    0.000152
      3          1           0        1.235252    1.579682    0.094179
      4          1           0        2.453937   -0.553304   -0.015819
      5          1           0        0.842699   -1.440973   -0.042267
      6          8           0       -0.657835    0.680730   -0.015157
      7          8           0       -1.184944    1.083196    1.300493
      8          1           0       -0.662536    1.875693    1.526513
 ---------------------------------------------------------------------

 Alpha  occ. eigenvalues --  -20.53081 -20.52153 -11.24687 -11.18744  -1.46799
 Alpha  occ. eigenvalues --   -1.23440  -1.04179  -0.81212  -0.70155  -0.68750
 Alpha  occ. eigenvalues --   -0.62103  -0.57961  -0.57399  -0.50243  -0.45940
 Alpha  occ. eigenvalues --   -0.38942
 Alpha virt. eigenvalues --    0.14695   0.25779   0.26824   0.30323   0.32593
 Alpha virt. eigenvalues --    0.35402   0.49578   0.55883   0.88111   0.96257
 Alpha virt. eigenvalues --    0.98816   1.06054   1.09606   1.10564   1.25191

 Mulliken charges:
               1
     1  C    0.094883
     2  C   -0.448005
     3  H    0.224409
     4  H    0.230650
     5  H    0.257839
     6  O   -0.381732
     7  O   -0.373218
     8  H    0.395174
 Sum of Mulliken charges =   0.00000

 Dipole moment (field-independent basis, Debye):
    X=              3.1009    Y=              1.2038    Z=              0.6357  Tot=              3.3865
 Quadrupole moment (field-independent basis, Debye-Ang):
   XX=            -24.8018   YY=            -17.2496   ZZ=            -24.3696
   XY=              1.0058   XZ=              0.9684   YZ=              3.3902

 Normal termination of Gaussian 09 at Fri Apr 12 16:21:22 2019.
