 Gaussian 09, Revision D.01,
 Gaussian 09:  AS64L-G09RevD.01 24-Apr-2013

 --------------------------------------------------------------------
 #p hf 3-21g scf=tight NoSymmetry guess=read opt=(tight,modredundant)
 --------------------------------------------------------------------

 -----------------------------------
 Geometry optimization at the 2D-PES
 -----------------------------------
 Symbolic Z-matrix:
 Charge =  0 Multiplicity = 1

 SCF Done:  E(RHF) =  -226.398344134     A.U. after   13 cycles
 SCF Done:  E(RHF) =  -226.398349149     A.U. after   11 cycles
 SCF Done:  E(RHF) =  -226.398356754     A.U. after   11 cycles
 SCF Done:  E(RHF) =  -226.398356843     A.U. after    9 cycles
 SCF Done:  E(RHF) =  -226.398356852     A.U. after    8 cycles
 SCF Done:  E(RHF) =  -226.398356852     A.U. after    6 cycles
 Optimization completed.
    -- Stationary point found.

                          Input orientation:
 ---------------------------------------------------------------------
 Center     Atomic      Atomic             Coordinates (Angstroms)
 Number     Number       Type             X           Y           Z
 ---------------------------------------------------------------------
      1          6           0        0.735957    0.571418    0.027507
      2          6           0        1.426723   -0.536203   -0.057640
      3          1           0        1.165964    1.548782    0.104893
      4          1           0        2.496108   -0.494472   -0.058912
      5          1           0        0.953152   -1.490785   -0.119083
      6          8           0       -0.652065    0.709350    0.046639
      7          8           0       -1.279090   -0.605959   -0.045007
      8          1           0       -1.910848   -0.438116   -0.764340
 ---------------------------------------------------------------------

 Alpha  occ. eigenvalues --  -20.54049 -20.52931 -11.24316 -11.15818  -1.48155
 Alpha  occ. eigenvalues --   -1.24136  -1.02916  -0.79346  -0.71302  -0.67398
 Alpha  occ. eigenvalues --   -0.64457  -0.59188  -0.53878  -0.51102  -0.48675
 Alpha  occ. eigenvalues --   -0.35771
 Alpha virt. eigenvalues --    0.20179   0.22657   0.28741   0.30193   0.34032
 Alpha virt. eigenvalues --    0.37371   0.49894   0.59095   0.89170   0.97027
 Alpha virt. eigenvalues --    1.01910   1.07458   1.10617   1.13057   1.22039

 Mulliken charges:
               1
     1  C    0.151722
     2  C   -0.509295
     3  H    0.258295
     4  H    0.219067
     5  H    0.252674
     6  O   -0.414702
     7  O   -0.378919
     8  H    0.421158
 Sum of Mulliken charges =   0.00000

 Dipole moment (field-independent basis, Debye):
    X=              0.2023    Y=              0.1538    Z=             -1.5736  Tot=              1.5940
 Quadrupole moment (field-independent basis, Debye-Ang):
   XX=            -18.7905   YY=            -22.7618   ZZ=            -24.4084
   XY=              1.8479   XZ=              3.3976   YZ=              0.9429

 Normal termination of Gaussian 09 at Fri Apr 12 17:58:16 2019.
