 Gaussian 09, Revision D.01,
 Gaussian 09:  AS64L-G09RevD.01 24-Apr-2013

 --------------------------------------------------------------------
 #p hf 3-21g scf=tight NoSymmetry guess=read opt=(tight,modredundant)
 --------------------------------------------------------------------

 -----------------------------------
 Geometry optimization at the 2D-PES
 -----------------------------------
 Symbolic Z-matrix:
 Charge =  0 Multiplicity = 1

 SCF Done:  E(RHF) =  -226.393118181     A.U. after   12 cycles
 SCF Done:  E(RHF) =  -226.393137221     A.U. after   13 cycles
 SCF Done:  E(RHF) =  -226.393165847     A.U. after   12 cycles
 SCF Done:  E(RHF) =  -226.393166105     A.U. after   10 cycles
 SCF Done:  E(RHF) =  -226.393166138     A.U. after    8 cycles
 SCF Done:  E(RHF) =  -226.393166142     A.U. after    7 cycles
 Optimization completed.
    -- Stationary point found.

                          Input orientation:
 ---------------------------------------------------------------------
 Center     Atomic      Atomic             Coordinates (Angstroms)
 Number     Number       Type             X           Y           Z
 ---------------------------------------------------------------------
      1          6           0        0.740642    0.568600    0.066292
      2          6           0        1.434784   -0.535729   -0.048007
      3          1           0        1.174195    1.546524    0.093598
      4          1           0        2.502916   -0.488989   -0.085927
      5          1           0        0.983300   -1.504602   -0.046946
      6          8           0       -0.649483    0.704061    0.062330
      7          8           0       -1.304710   -0.557504    0.378863
      8          1           0       -1.268848   -1.029002   -0.473847
 ---------------------------------------------------------------------

 Alpha  occ. eigenvalues --  -20.54471 -20.53435 -11.25223 -11.17153  -1.48711
 Alpha  occ. eigenvalues --   -1.24427  -1.04128  -0.80300  -0.71445  -0.69043
 Alpha  occ. eigenvalues --   -0.65647  -0.56953  -0.53879  -0.53447  -0.49008
 Alpha  occ. eigenvalues --   -0.36993
 Alpha virt. eigenvalues --    0.18266   0.22388   0.28319   0.28945   0.33471
 Alpha virt. eigenvalues --    0.36903   0.49521   0.58204   0.88372   0.96382
 Alpha virt. eigenvalues --    0.99544   1.06360   1.09470   1.11417   1.24841

 Mulliken charges:
               1
     1  C    0.149368
     2  C   -0.515773
     3  H    0.264699
     4  H    0.229958
     5  H    0.224817
     6  O   -0.398488
     7  O   -0.365247
     8  H    0.410667
 Sum of Mulliken charges =   0.00000

 Dipole moment (field-independent basis, Debye):
    X=              1.6645    Y=             -1.0303    Z=             -1.6367  Tot=              2.5517
 Quadrupole moment (field-independent basis, Debye-Ang):
   XX=            -23.3284   YY=            -20.7404   ZZ=            -25.4892
   XY=              3.0205   XZ=              2.4157   YZ=              1.7801

 Normal termination of Gaussian 09 at Fri Apr 12 17:34:04 2019.
