 Gaussian 09, Revision D.01,
 Gaussian 09:  AS64L-G09RevD.01 24-Apr-2013

 --------------------------------------------------------------------
 #p hf 3-21g scf=tight NoSymmetry guess=read opt=(tight,modredundant)
 --------------------------------------------------------------------

 -----------------------------------
 Geometry optimization at the 2D-PES
 -----------------------------------
 Symbolic Z-matrix:
 Charge =  0 Multiplicity = 1

 SCF Done:  E(RHF) =  -226.381469436     A.U. after   14 cycles
 SCF Done:  E(RHF) =  -226.381488763     A.U. after   12 cycles
 SCF Done:  E(RHF) =  -226.381538883     A.U. after   12 cycles
 SCF Done:  E(RHF) =  -226.381539341     A.U. after   10 cycles
 SCF Done:  E(RHF) =  -226.381539437     A.U. after    9 cycles
 SCF Done:  E(RHF) =  -226.381539442     A.U. after    7 cycles
 Optimization completed.
    -- Stationary point found.

                          Input orientation:
 ---------------------------------------------------------------------
 Center     Atomic      Atomic             Coordinates (Angstroms)
 Number     Number       Type             X           Y           Z
 ---------------------------------------------------------------------
      1          6           0        0.741276    0.554081    0.017047
      2          6           0        1.475979   -0.532345    0.031731
      3          1           0        1.161561    1.536412    0.072445
      4          1           0        2.539908   -0.438476    0.088488
      5          1           0        1.100561   -1.534533   -0.012073
      6          8           0       -0.638987    0.694289   -0.031366
      7          8           0       -1.397484   -0.525496   -0.300448
      8          1           0       -0.757347   -1.252725   -0.236465
 ---------------------------------------------------------------------

 Alpha  occ. eigenvalues --  -20.54931 -20.53407 -11.26692 -11.18362  -1.48707
 Alpha  occ. eigenvalues --   -1.25289  -1.05487  -0.81622  -0.73692  -0.68238
 Alpha  occ. eigenvalues --   -0.64574  -0.58735  -0.54710  -0.54065  -0.49387
 Alpha  occ. eigenvalues --   -0.37300
 Alpha virt. eigenvalues --    0.17983   0.20644   0.26505   0.27222   0.36215
 Alpha virt. eigenvalues --    0.37154   0.49344   0.61236   0.88007   0.95126
 Alpha virt. eigenvalues --    1.01511   1.05294   1.07634   1.10686   1.23971

 Mulliken charges:
               1
     1  C    0.151018
     2  C   -0.539443
     3  H    0.275478
     4  H    0.243622
     5  H    0.204411
     6  O   -0.390184
     7  O   -0.362811
     8  H    0.417907
 Sum of Mulliken charges =   0.00000

 Dipole moment (field-independent basis, Debye):
    X=              2.8787    Y=             -1.3672    Z=              0.1541  Tot=              3.1906
 Quadrupole moment (field-independent basis, Debye-Ang):
   XX=            -25.8297   YY=            -19.4834   ZZ=            -25.9464
   XY=              2.2705   XZ=             -0.3032   YZ=              0.4474

 Normal termination of Gaussian 09 at Fri Apr 12 14:57:19 2019.
