 Gaussian 09, Revision D.01,
 Gaussian 09:  AS64L-G09RevD.01 24-Apr-2013

 --------------------------------------------------------------------
 #p hf 3-21g scf=tight NoSymmetry guess=read opt=(tight,modredundant)
 --------------------------------------------------------------------

 -----------------------------------
 Geometry optimization at the 2D-PES
 -----------------------------------
 Symbolic Z-matrix:
 Charge =  0 Multiplicity = 1

 SCF Done:  E(RHF) =  -226.393941876     A.U. after   12 cycles
 SCF Done:  E(RHF) =  -226.393953186     A.U. after   13 cycles
 SCF Done:  E(RHF) =  -226.393975126     A.U. after   12 cycles
 SCF Done:  E(RHF) =  -226.393975304     A.U. after    9 cycles
 SCF Done:  E(RHF) =  -226.393975326     A.U. after    8 cycles
 SCF Done:  E(RHF) =  -226.393975328     A.U. after    8 cycles
 Optimization completed.
    -- Stationary point found.

                          Input orientation:
 ---------------------------------------------------------------------
 Center     Atomic      Atomic             Coordinates (Angstroms)
 Number     Number       Type             X           Y           Z
 ---------------------------------------------------------------------
      1          6           0        0.741956    0.572901    0.015446
      2          6           0        1.437406   -0.534894   -0.050877
      3          1           0        1.170584    1.550266    0.093103
      4          1           0        2.506165   -0.492071   -0.033466
      5          1           0        0.977620   -1.492478   -0.166461
      6          8           0       -0.647313    0.703106    0.039394
      7          8           0       -1.300845   -0.596422   -0.020269
      8          1           0       -1.092258   -0.975776    0.854759
 ---------------------------------------------------------------------

 Alpha  occ. eigenvalues --  -20.54696 -20.53528 -11.25393 -11.17113  -1.48937
 Alpha  occ. eigenvalues --   -1.24505  -1.04237  -0.80586  -0.71340  -0.69244
 Alpha  occ. eigenvalues --   -0.65249  -0.56874  -0.55287  -0.52894  -0.48998
 Alpha  occ. eigenvalues --   -0.37021
 Alpha virt. eigenvalues --    0.18949   0.21983   0.28210   0.29030   0.32975
 Alpha virt. eigenvalues --    0.36828   0.49371   0.58251   0.88230   0.96408
 Alpha virt. eigenvalues --    0.99970   1.06185   1.09290   1.11183   1.24717

 Mulliken charges:
               1
     1  C    0.141734
     2  C   -0.524950
     3  H    0.266424
     4  H    0.228937
     5  H    0.236412
     6  O   -0.393540
     7  O   -0.364295
     8  H    0.409278
 Sum of Mulliken charges =   0.00000

 Dipole moment (field-independent basis, Debye):
    X=              1.9901    Y=             -0.8172    Z=              1.7489  Tot=              2.7725
 Quadrupole moment (field-independent basis, Debye-Ang):
   XX=            -24.2628   YY=            -21.0477   ZZ=            -24.1011
   XY=              2.3728   XZ=             -2.0051   YZ=             -1.6115

 Normal termination of Gaussian 09 at Fri Apr 12 18:02:26 2019.
