 Gaussian 09, Revision D.01,
 Gaussian 09:  AS64L-G09RevD.01 24-Apr-2013

 --------------------------------------------------------------------
 #p hf 3-21g scf=tight NoSymmetry guess=read opt=(tight,modredundant)
 --------------------------------------------------------------------

 -----------------------------------
 Geometry optimization at the 2D-PES
 -----------------------------------
 Symbolic Z-matrix:
 Charge =  0 Multiplicity = 1

 SCF Done:  E(RHF) =  -226.397227147     A.U. after   13 cycles
 SCF Done:  E(RHF) =  -226.397236364     A.U. after   11 cycles
 SCF Done:  E(RHF) =  -226.397247851     A.U. after   10 cycles
 SCF Done:  E(RHF) =  -226.397248008     A.U. after    9 cycles
 SCF Done:  E(RHF) =  -226.397248018     A.U. after    8 cycles
 SCF Done:  E(RHF) =  -226.397248018     A.U. after    6 cycles
 Optimization completed.
    -- Stationary point found.

                          Input orientation:
 ---------------------------------------------------------------------
 Center     Atomic      Atomic             Coordinates (Angstroms)
 Number     Number       Type             X           Y           Z
 ---------------------------------------------------------------------
      1          6           0        0.739948    0.571368    0.034092
      2          6           0        1.431702   -0.535226   -0.059239
      3          1           0        1.168194    1.549669    0.106433
      4          1           0        2.500879   -0.493739   -0.069055
      5          1           0        0.959727   -1.491849   -0.104901
      6          8           0       -0.650950    0.705574    0.051083
      7          8           0       -1.287799   -0.600477   -0.052775
      8          1           0       -1.522924   -0.619448   -0.997514
 ---------------------------------------------------------------------

 Alpha  occ. eigenvalues --  -20.54323 -20.53247 -11.24678 -11.16325  -1.48543
 Alpha  occ. eigenvalues --   -1.24229  -1.03436  -0.79867  -0.70368  -0.69420
 Alpha  occ. eigenvalues --   -0.64790  -0.57585  -0.54543  -0.51835  -0.48868
 Alpha  occ. eigenvalues --   -0.36372
 Alpha virt. eigenvalues --    0.19663   0.22388   0.28665   0.29652   0.33460
 Alpha virt. eigenvalues --    0.37159   0.49563   0.58664   0.88735   0.96535
 Alpha virt. eigenvalues --    1.01240   1.06975   1.10140   1.11980   1.23229

 Mulliken charges:
               1
     1  C    0.143516
     2  C   -0.513370
     3  H    0.261034
     4  H    0.222567
     5  H    0.246806
     6  O   -0.403626
     7  O   -0.371959
     8  H    0.415032
 Sum of Mulliken charges =   0.00000

 Dipole moment (field-independent basis, Debye):
    X=              1.0602    Y=             -0.1901    Z=             -2.0003  Tot=              2.2719
 Quadrupole moment (field-independent basis, Debye-Ang):
   XX=            -21.8476   YY=            -22.3262   ZZ=            -23.4541
   XY=              2.0878   XZ=              3.4145   YZ=              1.5510

 Normal termination of Gaussian 09 at Fri Apr 12 17:57:21 2019.
