 Gaussian 09, Revision D.01,
 Gaussian 09:  AS64L-G09RevD.01 24-Apr-2013

 --------------------------------------------------------------------
 #p hf 3-21g scf=tight NoSymmetry guess=read opt=(tight,modredundant)
 --------------------------------------------------------------------

 -----------------------------------
 Geometry optimization at the 2D-PES
 -----------------------------------
 Symbolic Z-matrix:
 Charge =  0 Multiplicity = 1

 SCF Done:  E(RHF) =  -226.391026347     A.U. after   12 cycles
 SCF Done:  E(RHF) =  -226.391031226     A.U. after   11 cycles
 SCF Done:  E(RHF) =  -226.391036357     A.U. after   10 cycles
 SCF Done:  E(RHF) =  -226.391036380     A.U. after    8 cycles
 SCF Done:  E(RHF) =  -226.391036385     A.U. after    8 cycles
 SCF Done:  E(RHF) =  -226.391036385     A.U. after    6 cycles
 Optimization completed.
    -- Stationary point found.

                          Input orientation:
 ---------------------------------------------------------------------
 Center     Atomic      Atomic             Coordinates (Angstroms)
 Number     Number       Type             X           Y           Z
 ---------------------------------------------------------------------
      1          6           0        0.743687    0.596607    0.060492
      2          6           0        1.405472   -0.528090   -0.025480
      3          1           0        1.200308    1.564957    0.080726
      4          1           0        2.476112   -0.527041   -0.038725
      5          1           0        0.897584   -1.469756   -0.052286
      6          8           0       -0.662765    0.701005    0.031398
      7          8           0       -1.243257   -0.241976    0.991030
      8          1           0       -1.283486    0.304416    1.796063
 ---------------------------------------------------------------------

 Alpha  occ. eigenvalues --  -20.53032 -20.52347 -11.24088 -11.17393  -1.47115
 Alpha  occ. eigenvalues --   -1.23214  -1.03523  -0.79963  -0.70017  -0.68008
 Alpha  occ. eigenvalues --   -0.62198  -0.60325  -0.55762  -0.48339  -0.47672
 Alpha  occ. eigenvalues --   -0.37569
 Alpha virt. eigenvalues --    0.16071   0.25580   0.28897   0.29702   0.32442
 Alpha virt. eigenvalues --    0.36988   0.49778   0.57132   0.88292   0.96668
 Alpha virt. eigenvalues --    0.99780   1.06469   1.09919   1.11747   1.23590

 Mulliken charges:
               1
     1  C    0.108787
     2  C   -0.466714
     3  H    0.246109
     4  H    0.225254
     5  H    0.256423
     6  O   -0.399718
     7  O   -0.377718
     8  H    0.407577
 Sum of Mulliken charges =   0.00000

 Dipole moment (field-independent basis, Debye):
    X=              1.8143    Y=              0.7564    Z=              1.8937  Tot=              2.7295
 Quadrupole moment (field-independent basis, Debye-Ang):
   XX=            -22.8158   YY=            -22.2386   ZZ=            -20.6677
   XY=             -0.2260   XZ=             -2.4621   YZ=              2.0262

 Normal termination of Gaussian 09 at Fri Apr 12 17:08:18 2019.
