 Gaussian 09, Revision D.01,
 Gaussian 09:  AS64L-G09RevD.01 24-Apr-2013

 --------------------------------------------------------------------
 #p hf 3-21g scf=tight NoSymmetry guess=read opt=(tight,modredundant)
 --------------------------------------------------------------------

 -----------------------------------
 Geometry optimization at the 2D-PES
 -----------------------------------
 Symbolic Z-matrix:
 Charge =  0 Multiplicity = 1

 SCF Done:  E(RHF) =  -226.391778270     A.U. after   13 cycles
 SCF Done:  E(RHF) =  -226.391813890     A.U. after   12 cycles
 SCF Done:  E(RHF) =  -226.391837898     A.U. after   11 cycles
 SCF Done:  E(RHF) =  -226.391838263     A.U. after   10 cycles
 SCF Done:  E(RHF) =  -226.391838313     A.U. after    8 cycles
 SCF Done:  E(RHF) =  -226.391838315     A.U. after    7 cycles
 Optimization completed.
    -- Stationary point found.

                          Input orientation:
 ---------------------------------------------------------------------
 Center     Atomic      Atomic             Coordinates (Angstroms)
 Number     Number       Type             X           Y           Z
 ---------------------------------------------------------------------
      1          6           0        0.720691    0.629605    0.029995
      2          6           0        1.371145   -0.504891   -0.022709
      3          1           0        1.183335    1.592763    0.052947
      4          1           0        2.441680   -0.524028   -0.006993
      5          1           0        0.852916   -1.442508   -0.053216
      6          8           0       -0.690753    0.660227    0.047855
      7          8           0       -1.117951    0.969425   -1.326910
      8          1           0       -1.351496    0.080346   -1.646767
 ---------------------------------------------------------------------

 Alpha  occ. eigenvalues --  -20.52785 -20.52000 -11.24280 -11.18358  -1.46775
 Alpha  occ. eigenvalues --   -1.23147  -1.03866  -0.79776  -0.71613  -0.65950
 Alpha  occ. eigenvalues --   -0.64129  -0.59854  -0.55991  -0.47799  -0.46712
 Alpha  occ. eigenvalues --   -0.39149
 Alpha virt. eigenvalues --    0.15360   0.25742   0.28456   0.30946   0.31636
 Alpha virt. eigenvalues --    0.36000   0.49076   0.56206   0.88479   0.96612
 Alpha virt. eigenvalues --    0.97966   1.06538   1.09487   1.11912   1.24159

 Mulliken charges:
               1
     1  C    0.132975
     2  C   -0.467241
     3  H    0.245412
     4  H    0.232063
     5  H    0.235917
     6  O   -0.402163
     7  O   -0.383350
     8  H    0.406387
 Sum of Mulliken charges =   0.00000

 Dipole moment (field-independent basis, Debye):
    X=              1.5527    Y=             -1.9275    Z=             -0.8765  Tot=              2.6257
 Quadrupole moment (field-independent basis, Debye-Ang):
   XX=            -21.7789   YY=            -23.8927   ZZ=            -23.5980
   XY=              3.3801   XZ=              1.9027   YZ=              2.5396

 Normal termination of Gaussian 09 at Fri Apr 12 15:07:05 2019.
