 Gaussian 09, Revision D.01,
 Gaussian 09:  AS64L-G09RevD.01 24-Apr-2013

 --------------------------------------------------------------------
 #p hf 3-21g scf=tight NoSymmetry guess=read opt=(tight,modredundant)
 --------------------------------------------------------------------

 -----------------------------------
 Geometry optimization at the 2D-PES
 -----------------------------------
 Symbolic Z-matrix:
 Charge =  0 Multiplicity = 1

 SCF Done:  E(RHF) =  -226.381281823     A.U. after   13 cycles
 SCF Done:  E(RHF) =  -226.381303520     A.U. after   13 cycles
 SCF Done:  E(RHF) =  -226.381325288     A.U. after   12 cycles
 SCF Done:  E(RHF) =  -226.381325465     A.U. after    9 cycles
 SCF Done:  E(RHF) =  -226.381325506     A.U. after    9 cycles
 SCF Done:  E(RHF) =  -226.381325508     A.U. after    6 cycles
 Optimization completed.
    -- Stationary point found.

                          Input orientation:
 ---------------------------------------------------------------------
 Center     Atomic      Atomic             Coordinates (Angstroms)
 Number     Number       Type             X           Y           Z
 ---------------------------------------------------------------------
      1          6           0        0.759401    0.632813    0.022497
      2          6           0        1.383022   -0.517279   -0.007528
      3          1           0        1.257882    1.576726    0.118933
      4          1           0        2.451657   -0.555207    0.034661
      5          1           0        0.843431   -1.439899   -0.070311
      6          8           0       -0.641660    0.691553    0.026935
      7          8           0       -1.120916    2.062133   -0.174875
      8          1           0       -0.435373    2.487273   -0.721917
 ---------------------------------------------------------------------

 Alpha  occ. eigenvalues --  -20.54151 -20.53288 -11.25717 -11.17716  -1.48108
 Alpha  occ. eigenvalues --   -1.24572  -1.04117  -0.81856  -0.72149  -0.66668
 Alpha  occ. eigenvalues --   -0.64454  -0.58566  -0.54953  -0.53370  -0.48731
 Alpha  occ. eigenvalues --   -0.36726
 Alpha virt. eigenvalues --    0.17039   0.22330   0.24936   0.31050   0.33723
 Alpha virt. eigenvalues --    0.35484   0.50489   0.56384   0.88740   0.96108
 Alpha virt. eigenvalues --    0.99141   1.05964   1.09881   1.10997   1.23544

 Mulliken charges:
               1
     1  C    0.118922
     2  C   -0.492448
     3  H    0.236716
     4  H    0.231148
     5  H    0.250094
     6  O   -0.381707
     7  O   -0.362936
     8  H    0.400211
 Sum of Mulliken charges =   0.00000

 Dipole moment (field-independent basis, Debye):
    X=              3.1722    Y=              0.9916    Z=             -1.1033  Tot=              3.5019
 Quadrupole moment (field-independent basis, Debye-Ang):
   XX=            -25.1639   YY=            -17.7425   ZZ=            -24.7101
   XY=              3.6616   XZ=              0.4739   YZ=             -2.8978

 Normal termination of Gaussian 09 at Fri Apr 12 15:34:26 2019.
