 Gaussian 09, Revision D.01,
 Gaussian 09:  AS64L-G09RevD.01 24-Apr-2013

 --------------------------------------------------------------------
 #p hf 3-21g scf=tight NoSymmetry guess=read opt=(tight,modredundant)
 --------------------------------------------------------------------

 -----------------------------------
 Geometry optimization at the 2D-PES
 -----------------------------------
 Symbolic Z-matrix:
 Charge =  0 Multiplicity = 1

 SCF Done:  E(RHF) =  -226.384145501     A.U. after   13 cycles
 SCF Done:  E(RHF) =  -226.384153580     A.U. after   12 cycles
 SCF Done:  E(RHF) =  -226.384161556     A.U. after   11 cycles
 SCF Done:  E(RHF) =  -226.384161617     A.U. after    9 cycles
 SCF Done:  E(RHF) =  -226.384161623     A.U. after    8 cycles
 Optimization completed.
    -- Stationary point found.

                          Input orientation:
 ---------------------------------------------------------------------
 Center     Atomic      Atomic             Coordinates (Angstroms)
 Number     Number       Type             X           Y           Z
 ---------------------------------------------------------------------
      1          6           0        0.731616    0.614602    0.030083
      2          6           0        1.396867   -0.514013   -0.004904
      3          1           0        1.195515    1.577453    0.070519
      4          1           0        2.467194   -0.515583    0.010896
      5          1           0        0.903086   -1.466747   -0.017257
      6          8           0       -0.678527    0.672401    0.019497
      7          8           0       -1.193367    0.268361   -1.299305
      8          1           0       -0.730105   -0.571214   -1.469982
 ---------------------------------------------------------------------

 Alpha  occ. eigenvalues --  -20.53028 -20.52347 -11.25370 -11.19330  -1.46957
 Alpha  occ. eigenvalues --   -1.23485  -1.05115  -0.80695  -0.72714  -0.66709
 Alpha  occ. eigenvalues --   -0.63525  -0.59343  -0.56029  -0.51192  -0.46020
 Alpha  occ. eigenvalues --   -0.39327
 Alpha virt. eigenvalues --    0.14242   0.23652   0.28000   0.29547   0.32322
 Alpha virt. eigenvalues --    0.36375   0.49874   0.55440   0.87573   0.95779
 Alpha virt. eigenvalues --    0.99250   1.05225   1.08464   1.10734   1.24432

 Mulliken charges:
               1
     1  C    0.119500
     2  C   -0.486297
     3  H    0.253767
     4  H    0.240202
     5  H    0.231890
     6  O   -0.390610
     7  O   -0.368656
     8  H    0.400204
 Sum of Mulliken charges =   0.00000

 Dipole moment (field-independent basis, Debye):
    X=              2.9685    Y=             -1.8052    Z=             -0.4936  Tot=              3.5091
 Quadrupole moment (field-independent basis, Debye-Ang):
   XX=            -24.6652   YY=            -21.4761   ZZ=            -24.6475
   XY=              2.8137   XZ=             -0.7053   YZ=              2.5283

 Normal termination of Gaussian 09 at Fri Apr 12 15:00:51 2019.
