 Gaussian 09, Revision D.01,
 Gaussian 09:  AS64L-G09RevD.01 24-Apr-2013

 --------------------------------------------------------------------
 #p hf 3-21g scf=tight NoSymmetry guess=read opt=(tight,modredundant)
 --------------------------------------------------------------------

 -----------------------------------
 Geometry optimization at the 2D-PES
 -----------------------------------
 Symbolic Z-matrix:
 Charge =  0 Multiplicity = 1

 SCF Done:  E(RHF) =  -226.395668199     A.U. after   13 cycles
 SCF Done:  E(RHF) =  -226.395672319     A.U. after   11 cycles
 SCF Done:  E(RHF) =  -226.395676560     A.U. after   10 cycles
 SCF Done:  E(RHF) =  -226.395676608     A.U. after    8 cycles
 SCF Done:  E(RHF) =  -226.395676614     A.U. after    7 cycles
 Optimization completed.
    -- Stationary point found.

                          Input orientation:
 ---------------------------------------------------------------------
 Center     Atomic      Atomic             Coordinates (Angstroms)
 Number     Number       Type             X           Y           Z
 ---------------------------------------------------------------------
      1          6           0        0.734783    0.579486    0.062506
      2          6           0        1.411932   -0.535271   -0.035926
      3          1           0        1.177712    1.554015    0.085976
      4          1           0        2.481891   -0.509738   -0.055151
      5          1           0        0.925524   -1.486568   -0.064641
      6          8           0       -0.657688    0.708759    0.047946
      7          8           0       -1.258709   -0.503521    0.610182
      8          1           0       -1.975421   -0.098645    1.126886
 ---------------------------------------------------------------------

 Alpha  occ. eigenvalues --  -20.53414 -20.52460 -11.24018 -11.16117  -1.47421
 Alpha  occ. eigenvalues --   -1.23714  -1.02817  -0.79178  -0.71362  -0.65620
 Alpha  occ. eigenvalues --   -0.62852  -0.62130  -0.54146  -0.49948  -0.47626
 Alpha  occ. eigenvalues --   -0.36037
 Alpha virt. eigenvalues --    0.18446   0.24227   0.28913   0.30432   0.33732
 Alpha virt. eigenvalues --    0.37311   0.50170   0.58546   0.89137   0.97328
 Alpha virt. eigenvalues --    1.00685   1.07378   1.10751   1.12995   1.23120

 Mulliken charges:
               1
     1  C    0.146454
     2  C   -0.492111
     3  H    0.252456
     4  H    0.220087
     5  H    0.254620
     6  O   -0.418585
     7  O   -0.384011
     8  H    0.421091
 Sum of Mulliken charges =   0.00000

 Dipole moment (field-independent basis, Debye):
    X=              0.1595    Y=              0.5744    Z=              1.2849  Tot=              1.4165
 Quadrupole moment (field-independent basis, Debye-Ang):
   XX=            -17.9748   YY=            -22.8956   ZZ=            -23.6774
   XY=              0.5558   XZ=             -3.4106   YZ=              0.6625

 Normal termination of Gaussian 09 at Fri Apr 12 17:26:39 2019.
