 Gaussian 09, Revision D.01,
 Gaussian 09:  AS64L-G09RevD.01 24-Apr-2013

 --------------------------------------------------------------------
 #p hf 3-21g scf=tight NoSymmetry guess=read opt=(tight,modredundant)
 --------------------------------------------------------------------

 -----------------------------------
 Geometry optimization at the 2D-PES
 -----------------------------------
 Symbolic Z-matrix:
 Charge =  0 Multiplicity = 1

 SCF Done:  E(RHF) =  -226.387091083     A.U. after   13 cycles
 SCF Done:  E(RHF) =  -226.387101858     A.U. after   12 cycles
 SCF Done:  E(RHF) =  -226.387112487     A.U. after   10 cycles
 SCF Done:  E(RHF) =  -226.387112604     A.U. after    9 cycles
 SCF Done:  E(RHF) =  -226.387112619     A.U. after    8 cycles
 SCF Done:  E(RHF) =  -226.387112621     A.U. after    8 cycles
 Optimization completed.
    -- Stationary point found.

                          Input orientation:
 ---------------------------------------------------------------------
 Center     Atomic      Atomic             Coordinates (Angstroms)
 Number     Number       Type             X           Y           Z
 ---------------------------------------------------------------------
      1          6           0        0.729851    0.631742    0.035592
      2          6           0        1.378233   -0.505592   -0.017687
      3          1           0        1.193415    1.595165    0.061984
      4          1           0        2.448772   -0.528008   -0.003015
      5          1           0        0.853862   -1.440309   -0.040357
      6          8           0       -0.681366    0.653451    0.045003
      7          8           0       -1.134412    0.964066   -1.323633
      8          1           0       -0.629914    0.328454   -1.865768
 ---------------------------------------------------------------------

 Alpha  occ. eigenvalues --  -20.53042 -20.52115 -11.25003 -11.19361  -1.46909
 Alpha  occ. eigenvalues --   -1.23339  -1.04780  -0.80759  -0.72530  -0.66233
 Alpha  occ. eigenvalues --   -0.62795  -0.59728  -0.56281  -0.51016  -0.45079
 Alpha  occ. eigenvalues --   -0.39965
 Alpha virt. eigenvalues --    0.14439   0.25659   0.27534   0.30252   0.30831
 Alpha virt. eigenvalues --    0.35869   0.48776   0.55288   0.87882   0.96485
 Alpha virt. eigenvalues --    0.98057   1.05311   1.08646   1.10657   1.23795

 Mulliken charges:
               1
     1  C    0.092311
     2  C   -0.464327
     3  H    0.248333
     4  H    0.236097
     5  H    0.248512
     6  O   -0.382491
     7  O   -0.375878
     8  H    0.397444
 Sum of Mulliken charges =   0.00000

 Dipole moment (field-independent basis, Debye):
    X=              3.0927    Y=             -1.4378    Z=             -1.2016  Tot=              3.6161
 Quadrupole moment (field-independent basis, Debye-Ang):
   XX=            -24.7349   YY=            -23.6488   ZZ=            -21.9960
   XY=              2.8963   XZ=             -0.4317   YZ=              1.4962

 Normal termination of Gaussian 09 at Fri Apr 12 15:08:30 2019.
