 Gaussian 09, Revision D.01,
 Gaussian 09:  AS64L-G09RevD.01 24-Apr-2013

 --------------------------------------------------------------------
 #p hf 3-21g scf=tight NoSymmetry guess=read opt=(tight,modredundant)
 --------------------------------------------------------------------

 -----------------------------------
 Geometry optimization at the 2D-PES
 -----------------------------------
 Symbolic Z-matrix:
 Charge =  0 Multiplicity = 1

 SCF Done:  E(RHF) =  -226.394220048     A.U. after   13 cycles
 SCF Done:  E(RHF) =  -226.394223828     A.U. after   11 cycles
 SCF Done:  E(RHF) =  -226.394227023     A.U. after   10 cycles
 SCF Done:  E(RHF) =  -226.394227066     A.U. after    8 cycles
 SCF Done:  E(RHF) =  -226.394227069     A.U. after    7 cycles
 Optimization completed.
    -- Stationary point found.

                          Input orientation:
 ---------------------------------------------------------------------
 Center     Atomic      Atomic             Coordinates (Angstroms)
 Number     Number       Type             X           Y           Z
 ---------------------------------------------------------------------
      1          6           0        0.735564    0.588527    0.063354
      2          6           0        1.405533   -0.530742   -0.031309
      3          1           0        1.186167    1.559508    0.086944
      4          1           0        2.475868   -0.515824   -0.046804
      5          1           0        0.910967   -1.478699   -0.057091
      6          8           0       -0.660778    0.707207    0.040403
      7          8           0       -1.243974   -0.395884    0.813657
      8          1           0       -1.959355    0.086736    1.261258
 ---------------------------------------------------------------------

 Alpha  occ. eigenvalues --  -20.53053 -20.52245 -11.23883 -11.16419  -1.47026
 Alpha  occ. eigenvalues --   -1.23471  -1.02860  -0.79122  -0.71153  -0.65389
 Alpha  occ. eigenvalues --   -0.62882  -0.62011  -0.54363  -0.49804  -0.46869
 Alpha  occ. eigenvalues --   -0.36385
 Alpha virt. eigenvalues --    0.17572   0.24906   0.29095   0.30483   0.33351
 Alpha virt. eigenvalues --    0.37249   0.50216   0.58091   0.89042   0.97399
 Alpha virt. eigenvalues --    1.00147   1.07248   1.10703   1.12924   1.23339

 Mulliken charges:
               1
     1  C    0.142051
     2  C   -0.481292
     3  H    0.248939
     4  H    0.221333
     5  H    0.253750
     6  O   -0.419127
     7  O   -0.384966
     8  H    0.419312
 Sum of Mulliken charges =   0.00000

 Dipole moment (field-independent basis, Debye):
    X=              0.2552    Y=              0.7026    Z=              1.1851  Tot=              1.4011
 Quadrupole moment (field-independent basis, Debye-Ang):
   XX=            -17.9732   YY=            -22.6751   ZZ=            -23.5778
   XY=             -0.0400   XZ=             -3.4096   YZ=              1.2122

 Normal termination of Gaussian 09 at Fri Apr 12 17:18:31 2019.
