 Gaussian 09, Revision D.01,
 Gaussian 09:  AS64L-G09RevD.01 24-Apr-2013

 --------------------------------------------------------------------
 #p hf 3-21g scf=tight NoSymmetry guess=read opt=(tight,modredundant)
 --------------------------------------------------------------------

 -----------------------------------
 Geometry optimization at the 2D-PES
 -----------------------------------
 Symbolic Z-matrix:
 Charge =  0 Multiplicity = 1

 SCF Done:  E(RHF) =  -226.396414816     A.U. after   12 cycles
 SCF Done:  E(RHF) =  -226.396425565     A.U. after   12 cycles
 SCF Done:  E(RHF) =  -226.396439794     A.U. after   11 cycles
 SCF Done:  E(RHF) =  -226.396439983     A.U. after    9 cycles
 SCF Done:  E(RHF) =  -226.396439999     A.U. after    8 cycles
 SCF Done:  E(RHF) =  -226.396440000     A.U. after    7 cycles
 Optimization completed.
    -- Stationary point found.

                          Input orientation:
 ---------------------------------------------------------------------
 Center     Atomic      Atomic             Coordinates (Angstroms)
 Number     Number       Type             X           Y           Z
 ---------------------------------------------------------------------
      1          6           0        0.740870    0.571430    0.037481
      2          6           0        1.433123   -0.534866   -0.059704
      3          1           0        1.168980    1.549912    0.106521
      4          1           0        2.502152   -0.492968   -0.073935
      5          1           0        0.963437   -1.493199   -0.097869
      6          8           0       -0.650166    0.704186    0.053370
      7          8           0       -1.290973   -0.598693   -0.056392
      8          1           0       -1.379790   -0.691359   -1.022520
 ---------------------------------------------------------------------

 Alpha  occ. eigenvalues --  -20.54440 -20.53355 -11.24875 -11.16562  -1.48683
 Alpha  occ. eigenvalues --   -1.24296  -1.03675  -0.80093  -0.70115  -0.69956
 Alpha  occ. eigenvalues --   -0.64940  -0.57206  -0.54835  -0.52156  -0.48913
 Alpha  occ. eigenvalues --   -0.36597
 Alpha virt. eigenvalues --    0.19439   0.22266   0.28552   0.29449   0.33247
 Alpha virt. eigenvalues --    0.37055   0.49485   0.58494   0.88563   0.96445
 Alpha virt. eigenvalues --    1.00709   1.06738   1.09895   1.11599   1.23966

 Mulliken charges:
               1
     1  C    0.141749
     2  C   -0.516193
     3  H    0.262572
     4  H    0.224371
     5  H    0.243890
     6  O   -0.399842
     7  O   -0.369282
     8  H    0.412736
 Sum of Mulliken charges =   0.00000

 Dipole moment (field-independent basis, Debye):
    X=              1.3713    Y=             -0.3131    Z=             -2.0190  Tot=              2.4607
 Quadrupole moment (field-independent basis, Debye-Ang):
   XX=            -22.7588   YY=            -22.1081   ZZ=            -23.3581
   XY=              2.1147   XZ=              3.1181   YZ=              1.7336

 Normal termination of Gaussian 09 at Fri Apr 12 17:57:08 2019.
