 Gaussian 09, Revision D.01,
 Gaussian 09:  AS64L-G09RevD.01 24-Apr-2013

 --------------------------------------------------------------------
 #p hf 3-21g scf=tight NoSymmetry guess=read opt=(tight,modredundant)
 --------------------------------------------------------------------

 -----------------------------------
 Geometry optimization at the 2D-PES
 -----------------------------------
 Symbolic Z-matrix:
 Charge =  0 Multiplicity = 1

 SCF Done:  E(RHF) =  -226.388206200     A.U. after   13 cycles
 SCF Done:  E(RHF) =  -226.388228376     A.U. after   13 cycles
 SCF Done:  E(RHF) =  -226.388241914     A.U. after   10 cycles
 SCF Done:  E(RHF) =  -226.388242140     A.U. after   10 cycles
 SCF Done:  E(RHF) =  -226.388242192     A.U. after    9 cycles
 SCF Done:  E(RHF) =  -226.388242195     A.U. after    8 cycles
 Optimization completed.
    -- Stationary point found.

                          Input orientation:
 ---------------------------------------------------------------------
 Center     Atomic      Atomic             Coordinates (Angstroms)
 Number     Number       Type             X           Y           Z
 ---------------------------------------------------------------------
      1          6           0        0.738998    0.638068    0.023840
      2          6           0        1.378140   -0.503788   -0.017775
      3          1           0        1.203418    1.600262    0.082788
      4          1           0        2.447371   -0.533672    0.029306
      5          1           0        0.846228   -1.431893   -0.072914
      6          8           0       -0.667618    0.665081    0.048382
      7          8           0       -1.119357    1.601918   -0.991540
      8          1           0       -0.625528    1.312060   -1.781721
 ---------------------------------------------------------------------

 Alpha  occ. eigenvalues --  -20.53544 -20.52477 -11.24929 -11.18704  -1.47453
 Alpha  occ. eigenvalues --   -1.23750  -1.04312  -0.80915  -0.72490  -0.66162
 Alpha  occ. eigenvalues --   -0.63335  -0.59635  -0.55697  -0.51610  -0.46468
 Alpha  occ. eigenvalues --   -0.38623
 Alpha virt. eigenvalues --    0.15226   0.25413   0.27323   0.30524   0.31726
 Alpha virt. eigenvalues --    0.35523   0.48707   0.56129   0.88390   0.96557
 Alpha virt. eigenvalues --    0.98177   1.06089   1.09313   1.10420   1.24628

 Mulliken charges:
               1
     1  C    0.093043
     2  C   -0.471310
     3  H    0.250826
     4  H    0.233192
     5  H    0.250719
     6  O   -0.380282
     7  O   -0.376365
     8  H    0.400177
 Sum of Mulliken charges =   0.00000

 Dipole moment (field-independent basis, Debye):
    X=              2.9674    Y=             -0.6692    Z=             -1.6901  Tot=              3.4799
 Quadrupole moment (field-independent basis, Debye-Ang):
   XX=            -24.7422   YY=            -23.7469   ZZ=            -20.9502
   XY=              3.0797   XZ=              0.3263   YZ=             -1.4255

 Normal termination of Gaussian 09 at Fri Apr 12 15:19:30 2019.
