 Gaussian 09, Revision D.01,
 Gaussian 09:  AS64L-G09RevD.01 24-Apr-2013

 --------------------------------------------------------------------
 #p hf 3-21g scf=tight NoSymmetry guess=read opt=(tight,modredundant)
 --------------------------------------------------------------------

 -----------------------------------
 Geometry optimization at the 2D-PES
 -----------------------------------
 Symbolic Z-matrix:
 Charge =  0 Multiplicity = 1

 SCF Done:  E(RHF) =  -226.398346958     A.U. after   13 cycles
 SCF Done:  E(RHF) =  -226.398350462     A.U. after   11 cycles
 SCF Done:  E(RHF) =  -226.398356810     A.U. after   11 cycles
 SCF Done:  E(RHF) =  -226.398356862     A.U. after    8 cycles
 SCF Done:  E(RHF) =  -226.398356868     A.U. after    8 cycles
 Optimization completed.
    -- Stationary point found.

                          Input orientation:
 ---------------------------------------------------------------------
 Center     Atomic      Atomic             Coordinates (Angstroms)
 Number     Number       Type             X           Y           Z
 ---------------------------------------------------------------------
      1          6           0        0.736077    0.571068    0.033313
      2          6           0        1.426794   -0.536483   -0.053180
      3          1           0        1.166043    1.549588    0.094631
      4          1           0        2.496153   -0.494457   -0.058974
      5          1           0        0.953124   -1.490183   -0.126400
      6          8           0       -0.651926    0.709124    0.051666
      7          8           0       -1.279050   -0.605957   -0.042627
      8          1           0       -1.901747   -0.545804    0.701250
 ---------------------------------------------------------------------

 Alpha  occ. eigenvalues --  -20.54049 -20.52931 -11.24316 -11.15818  -1.48155
 Alpha  occ. eigenvalues --   -1.24137  -1.02916  -0.79346  -0.71302  -0.67399
 Alpha  occ. eigenvalues --   -0.64458  -0.59188  -0.53878  -0.51102  -0.48675
 Alpha  occ. eigenvalues --   -0.35771
 Alpha virt. eigenvalues --    0.20179   0.22656   0.28741   0.30193   0.34032
 Alpha virt. eigenvalues --    0.37372   0.49894   0.59096   0.89170   0.97027
 Alpha virt. eigenvalues --    1.01909   1.07458   1.10617   1.13057   1.22039

 Mulliken charges:
               1
     1  C    0.151729
     2  C   -0.509295
     3  H    0.258295
     4  H    0.219065
     5  H    0.252670
     6  O   -0.414710
     7  O   -0.378914
     8  H    0.421160
 Sum of Mulliken charges =   0.00000

 Dipole moment (field-independent basis, Debye):
    X=              0.2217    Y=             -0.0782    Z=              1.5765  Tot=              1.5939
 Quadrupole moment (field-independent basis, Debye-Ang):
   XX=            -18.8715   YY=            -22.5202   ZZ=            -24.6139
   XY=              2.3206   XZ=             -3.1639   YZ=             -0.6921

 Normal termination of Gaussian 09 at Fri Apr 12 18:00:34 2019.
