 Gaussian 09, Revision D.01,
 Gaussian 09:  AS64L-G09RevD.01 24-Apr-2013

 --------------------------------------------------------------------
 #p hf 3-21g scf=tight NoSymmetry guess=read opt=(tight,modredundant)
 --------------------------------------------------------------------

 -----------------------------------
 Geometry optimization at the 2D-PES
 -----------------------------------
 Symbolic Z-matrix:
 Charge =  0 Multiplicity = 1

 SCF Done:  E(RHF) =  -226.384831984     A.U. after   13 cycles
 SCF Done:  E(RHF) =  -226.384839858     A.U. after   12 cycles
 SCF Done:  E(RHF) =  -226.384847554     A.U. after   11 cycles
 SCF Done:  E(RHF) =  -226.384847606     A.U. after    9 cycles
 SCF Done:  E(RHF) =  -226.384847614     A.U. after    8 cycles
 Optimization completed.
    -- Stationary point found.

                          Input orientation:
 ---------------------------------------------------------------------
 Center     Atomic      Atomic             Coordinates (Angstroms)
 Number     Number       Type             X           Y           Z
 ---------------------------------------------------------------------
      1          6           0        0.748142    0.611022    0.044373
      2          6           0        1.397477   -0.523378   -0.016965
      3          1           0        1.217972    1.572905    0.080515
      4          1           0        2.468355   -0.542456   -0.014361
      5          1           0        0.872777   -1.456149   -0.062189
      6          8           0       -0.663571    0.687417    0.007315
      7          8           0       -1.224102    0.149514    1.258494
      8          1           0       -0.717250    0.615847    1.948985
 ---------------------------------------------------------------------

 Alpha  occ. eigenvalues --  -20.52722 -20.52034 -11.24470 -11.18796  -1.46549
 Alpha  occ. eigenvalues --   -1.23066  -1.04347  -0.80827  -0.69949  -0.68814
 Alpha  occ. eigenvalues --   -0.60447  -0.59346  -0.57553  -0.50202  -0.45267
 Alpha  occ. eigenvalues --   -0.39058
 Alpha virt. eigenvalues --    0.14149   0.26855   0.28000   0.29201   0.31365
 Alpha virt. eigenvalues --    0.36527   0.49605   0.55778   0.87438   0.96651
 Alpha virt. eigenvalues --    0.98152   1.06067   1.09249   1.10478   1.24754

 Mulliken charges:
               1
     1  C    0.072889
     2  C   -0.445283
     3  H    0.241846
     4  H    0.230933
     5  H    0.260032
     6  O   -0.384232
     7  O   -0.373640
     8  H    0.397456
 Sum of Mulliken charges =   0.00000

 Dipole moment (field-independent basis, Debye):
    X=              3.1025    Y=              0.4894    Z=              1.5801  Tot=              3.5159
 Quadrupole moment (field-independent basis, Debye-Ang):
   XX=            -24.8485   YY=            -21.4880   ZZ=            -20.8766
   XY=              0.5111   XZ=              0.2302   YZ=              2.4824

 Normal termination of Gaussian 09 at Fri Apr 12 16:50:43 2019.
