 Gaussian 09, Revision D.01,
 Gaussian 09:  AS64L-G09RevD.01 24-Apr-2013

 --------------------------------------------------------------------
 #p hf 3-21g scf=tight NoSymmetry guess=read opt=(tight,modredundant)
 --------------------------------------------------------------------

 -----------------------------------
 Geometry optimization at the 2D-PES
 -----------------------------------
 Symbolic Z-matrix:
 Charge =  0 Multiplicity = 1

 SCF Done:  E(RHF) =  -226.387635834     A.U. after   13 cycles
 SCF Done:  E(RHF) =  -226.387669174     A.U. after   12 cycles
 SCF Done:  E(RHF) =  -226.387695104     A.U. after   12 cycles
 SCF Done:  E(RHF) =  -226.387695346     A.U. after    9 cycles
 SCF Done:  E(RHF) =  -226.387695383     A.U. after    8 cycles
 SCF Done:  E(RHF) =  -226.387695388     A.U. after    7 cycles
 Optimization completed.
    -- Stationary point found.

                          Input orientation:
 ---------------------------------------------------------------------
 Center     Atomic      Atomic             Coordinates (Angstroms)
 Number     Number       Type             X           Y           Z
 ---------------------------------------------------------------------
      1          6           0        0.742891    0.575094    0.071040
      2          6           0        1.435531   -0.531124   -0.036174
      3          1           0        1.189302    1.547250    0.089514
      4          1           0        2.504105   -0.487593   -0.069342
      5          1           0        0.993779   -1.506335   -0.054028
      6          8           0       -0.652976    0.701433    0.054935
      7          8           0       -1.307564   -0.371855    0.798451
      8          1           0       -1.152219   -1.152862    0.238745
 ---------------------------------------------------------------------

 Alpha  occ. eigenvalues --  -20.53969 -20.53145 -11.25356 -11.18047  -1.48105
 Alpha  occ. eigenvalues --   -1.24198  -1.04600  -0.80439  -0.72303  -0.67661
 Alpha  occ. eigenvalues --   -0.65899  -0.57833  -0.54840  -0.51713  -0.48625
 Alpha  occ. eigenvalues --   -0.37650
 Alpha virt. eigenvalues --    0.16435   0.22330   0.27985   0.28506   0.34824
 Alpha virt. eigenvalues --    0.36813   0.49921   0.57991   0.88117   0.96051
 Alpha virt. eigenvalues --    0.98727   1.05914   1.09029   1.11173   1.25390

 Mulliken charges:
               1
     1  C    0.145853
     2  C   -0.501401
     3  H    0.262839
     4  H    0.236589
     5  H    0.210051
     6  O   -0.398182
     7  O   -0.364196
     8  H    0.408447
 Sum of Mulliken charges =   0.00000

 Dipole moment (field-independent basis, Debye):
    X=              2.0562    Y=             -1.6662    Z=             -0.9437  Tot=              2.8098
 Quadrupole moment (field-independent basis, Debye-Ang):
   XX=            -23.7000   YY=            -19.7452   ZZ=            -26.9202
   XY=              3.4777   XZ=              1.5646   YZ=              0.3690

 Normal termination of Gaussian 09 at Fri Apr 12 17:14:49 2019.
