 Gaussian 09, Revision D.01,
 Gaussian 09:  AS64L-G09RevD.01 24-Apr-2013

 --------------------------------------------------------------------
 #p hf 3-21g scf=tight NoSymmetry guess=read opt=(tight,modredundant)
 --------------------------------------------------------------------

 -----------------------------------
 Geometry optimization at the 2D-PES
 -----------------------------------
 Symbolic Z-matrix:
 Charge =  0 Multiplicity = 1

 SCF Done:  E(RHF) =  -226.382558483     A.U. after   13 cycles
 SCF Done:  E(RHF) =  -226.382565864     A.U. after   12 cycles
 SCF Done:  E(RHF) =  -226.382571038     A.U. after   11 cycles
 SCF Done:  E(RHF) =  -226.382571127     A.U. after    9 cycles
 SCF Done:  E(RHF) =  -226.382571140     A.U. after    8 cycles
 Optimization completed.
    -- Stationary point found.

                          Input orientation:
 ---------------------------------------------------------------------
 Center     Atomic      Atomic             Coordinates (Angstroms)
 Number     Number       Type             X           Y           Z
 ---------------------------------------------------------------------
      1          6           0        0.750550    0.610870    0.040492
      2          6           0        1.400631   -0.524509   -0.018372
      3          1           0        1.220536    1.572389    0.075402
      4          1           0        2.471467   -0.542798   -0.015426
      5          1           0        0.877272   -1.458109   -0.068986
      6          8           0       -0.659523    0.685189    0.008928
      7          8           0       -1.230241    0.153954    1.262886
      8          1           0       -0.545622    0.347416    1.930275
 ---------------------------------------------------------------------

 Alpha  occ. eigenvalues --  -20.52746 -20.51994 -11.24872 -11.19232  -1.46442
 Alpha  occ. eigenvalues --   -1.23221  -1.04772  -0.81099  -0.70796  -0.68410
 Alpha  occ. eigenvalues --   -0.60169  -0.58661  -0.58081  -0.51545  -0.44800
 Alpha  occ. eigenvalues --   -0.39293
 Alpha virt. eigenvalues --    0.13805   0.26718   0.27687   0.28906   0.30957
 Alpha virt. eigenvalues --    0.36554   0.49636   0.55365   0.87222   0.96898
 Alpha virt. eigenvalues --    0.97512   1.05298   1.08732   1.10774   1.24235

 Mulliken charges:
               1
     1  C    0.065860
     2  C   -0.449720
     3  H    0.246169
     4  H    0.233654
     5  H    0.260077
     6  O   -0.380844
     7  O   -0.372620
     8  H    0.397423
 Sum of Mulliken charges =   0.00000

 Dipole moment (field-independent basis, Debye):
    X=              3.4713    Y=             -0.0353    Z=              1.4928  Tot=              3.7789
 Quadrupole moment (field-independent basis, Debye-Ang):
   XX=            -25.2450   YY=            -22.0236   ZZ=            -21.0586
   XY=              1.0632   XZ=              0.9734   YZ=              1.3007

 Normal termination of Gaussian 09 at Fri Apr 12 16:50:15 2019.
