 Gaussian 09, Revision D.01,
 Gaussian 09:  AS64L-G09RevD.01 24-Apr-2013

 --------------------------------------------------------------------
 #p hf 3-21g scf=tight NoSymmetry guess=read opt=(tight,modredundant)
 --------------------------------------------------------------------

 -----------------------------------
 Geometry optimization at the 2D-PES
 -----------------------------------
 Symbolic Z-matrix:
 Charge =  0 Multiplicity = 1

 SCF Done:  E(RHF) =  -226.396154368     A.U. after   13 cycles
 SCF Done:  E(RHF) =  -226.396154699     A.U. after   10 cycles
 SCF Done:  E(RHF) =  -226.396154757     A.U. after    9 cycles
 SCF Done:  E(RHF) =  -226.396154767     A.U. after    7 cycles
 Optimization completed.
    -- Stationary point found.

                          Input orientation:
 ---------------------------------------------------------------------
 Center     Atomic      Atomic             Coordinates (Angstroms)
 Number     Number       Type             X           Y           Z
 ---------------------------------------------------------------------
      1          6           0        0.722612    0.634282    0.053519
      2          6           0        1.367388   -0.503906   -0.002874
      3          1           0        1.178332    1.598773    0.107782
      4          1           0        2.437339   -0.517516   -0.016466
      5          1           0        0.848553   -1.439642   -0.044762
      6          8           0       -0.673593    0.672510   -0.003111
      7          8           0       -1.065090    1.970841    0.560529
      8          1           0       -2.007497    1.964291    0.324916
 ---------------------------------------------------------------------

 Alpha  occ. eigenvalues --  -20.53519 -20.52615 -11.24206 -11.16297  -1.47595
 Alpha  occ. eigenvalues --   -1.24052  -1.02564  -0.79770  -0.70275  -0.67492
 Alpha  occ. eigenvalues --   -0.64194  -0.58935  -0.55411  -0.50969  -0.47997
 Alpha  occ. eigenvalues --   -0.35690
 Alpha virt. eigenvalues --    0.18823   0.23588   0.27830   0.32183   0.33832
 Alpha virt. eigenvalues --    0.36119   0.50119   0.57771   0.90348   0.97405
 Alpha virt. eigenvalues --    1.00273   1.07013   1.10975   1.12288   1.23431

 Mulliken charges:
               1
     1  C    0.172916
     2  C   -0.508128
     3  H    0.261634
     4  H    0.225717
     5  H    0.237010
     6  O   -0.421839
     7  O   -0.390296
     8  H    0.422986
 Sum of Mulliken charges =   0.00000

 Dipole moment (field-independent basis, Debye):
    X=             -0.2900    Y=              0.4112    Z=             -0.3426  Tot=              0.6088
 Quadrupole moment (field-independent basis, Debye-Ang):
   XX=            -16.6320   YY=            -21.6496   ZZ=            -26.2438
   XY=             -2.8036   XZ=             -0.1606   YZ=             -0.6760

 Normal termination of Gaussian 09 at Fri Apr 12 15:49:44 2019.
