 Gaussian 09, Revision D.01,
 Gaussian 09:  AS64L-G09RevD.01 24-Apr-2013

 --------------------------------------------------------------------
 #p hf 3-21g scf=tight NoSymmetry guess=read opt=(tight,modredundant)
 --------------------------------------------------------------------

 -----------------------------------
 Geometry optimization at the 2D-PES
 -----------------------------------
 Symbolic Z-matrix:
 Charge =  0 Multiplicity = 1

 SCF Done:  E(RHF) =  -226.382547965     A.U. after   13 cycles
 SCF Done:  E(RHF) =  -226.382561684     A.U. after   12 cycles
 SCF Done:  E(RHF) =  -226.382572655     A.U. after   11 cycles
 SCF Done:  E(RHF) =  -226.382572875     A.U. after   10 cycles
 SCF Done:  E(RHF) =  -226.382572913     A.U. after    9 cycles
 SCF Done:  E(RHF) =  -226.382572915     A.U. after    6 cycles
 Optimization completed.
    -- Stationary point found.

                          Input orientation:
 ---------------------------------------------------------------------
 Center     Atomic      Atomic             Coordinates (Angstroms)
 Number     Number       Type             X           Y           Z
 ---------------------------------------------------------------------
      1          6           0        0.749819    0.596309    0.039858
      2          6           0        1.419356   -0.529865   -0.028048
      3          1           0        1.205539    1.563867    0.067289
      4          1           0        2.489525   -0.524757   -0.027650
      5          1           0        0.923385   -1.477681   -0.099910
      6          8           0       -0.650347    0.687605    0.031619
      7          8           0       -1.266862   -0.220939    1.014691
      8          1           0       -0.511376   -0.544192    1.541705
 ---------------------------------------------------------------------

 Alpha  occ. eigenvalues --  -20.53438 -20.52536 -11.25856 -11.19097  -1.47239
 Alpha  occ. eigenvalues --   -1.23915  -1.05314  -0.81241  -0.72268  -0.68120
 Alpha  occ. eigenvalues --   -0.61809  -0.59227  -0.56133  -0.53351  -0.46415
 Alpha  occ. eigenvalues --   -0.38441
 Alpha virt. eigenvalues --    0.14703   0.24529   0.27710   0.28959   0.30786
 Alpha virt. eigenvalues --    0.36663   0.49925   0.55709   0.87360   0.96082
 Alpha virt. eigenvalues --    0.99577   1.04550   1.08089   1.11091   1.23116

 Mulliken charges:
               1
     1  C    0.102451
     2  C   -0.499538
     3  H    0.260918
     4  H    0.238038
     5  H    0.247871
     6  O   -0.384857
     7  O   -0.367215
     8  H    0.402333
 Sum of Mulliken charges =   0.00000

 Dipole moment (field-independent basis, Debye):
    X=              3.4463    Y=             -0.8289    Z=              1.1657  Tot=              3.7313
 Quadrupole moment (field-independent basis, Debye-Ang):
   XX=            -25.5664   YY=            -21.6704   ZZ=            -22.7712
   XY=              1.3833   XZ=              0.9260   YZ=             -1.0785

 Normal termination of Gaussian 09 at Fri Apr 12 17:05:49 2019.
