 Gaussian 09, Revision D.01,
 Gaussian 09:  AS64L-G09RevD.01 24-Apr-2013

 --------------------------------------------------------------------
 #p hf 3-21g scf=tight NoSymmetry guess=read opt=(tight,modredundant)
 --------------------------------------------------------------------

 -----------------------------------
 Geometry optimization at the 2D-PES
 -----------------------------------
 Symbolic Z-matrix:
 Charge =  0 Multiplicity = 1

 SCF Done:  E(RHF) =  -226.383563216     A.U. after   13 cycles
 SCF Done:  E(RHF) =  -226.383577087     A.U. after   12 cycles
 SCF Done:  E(RHF) =  -226.383584336     A.U. after   10 cycles
 SCF Done:  E(RHF) =  -226.383584546     A.U. after    9 cycles
 SCF Done:  E(RHF) =  -226.383584554     A.U. after    8 cycles
 SCF Done:  E(RHF) =  -226.383584557     A.U. after    7 cycles
 Optimization completed.
    -- Stationary point found.

                          Input orientation:
 ---------------------------------------------------------------------
 Center     Atomic      Atomic             Coordinates (Angstroms)
 Number     Number       Type             X           Y           Z
 ---------------------------------------------------------------------
      1          6           0        0.735285    0.629367    0.036372
      2          6           0        1.387633   -0.506664   -0.010671
      3          1           0        1.201482    1.591826    0.071557
      4          1           0        2.458278   -0.525181    0.005124
      5          1           0        0.866431   -1.443298   -0.033324
      6          8           0       -0.675590    0.656982    0.036558
      7          8           0       -1.159703    0.724823   -1.359094
      8          1           0       -0.466525    0.257160   -1.862267
 ---------------------------------------------------------------------

 Alpha  occ. eigenvalues --  -20.52852 -20.51957 -11.25236 -11.19716  -1.46546
 Alpha  occ. eigenvalues --   -1.23344  -1.05107  -0.81048  -0.72392  -0.66908
 Alpha  occ. eigenvalues --   -0.61671  -0.59441  -0.56387  -0.52230  -0.44318
 Alpha  occ. eigenvalues --   -0.40185
 Alpha virt. eigenvalues --    0.13830   0.25860   0.27484   0.29844   0.30342
 Alpha virt. eigenvalues --    0.36095   0.49052   0.54918   0.87559   0.96413
 Alpha virt. eigenvalues --    0.98077   1.04677   1.08266   1.10899   1.23298

 Mulliken charges:
               1
     1  C    0.079978
     2  C   -0.460448
     3  H    0.247892
     4  H    0.237526
     5  H    0.252716
     6  O   -0.380557
     7  O   -0.374117
     8  H    0.397010
 Sum of Mulliken charges =   0.00000

 Dipole moment (field-independent basis, Debye):
    X=              3.5104    Y=             -1.1720    Z=             -1.1036  Tot=              3.8619
 Quadrupole moment (field-independent basis, Debye-Ang):
   XX=            -25.1085   YY=            -22.9619   ZZ=            -22.2036
   XY=              2.5091   XZ=             -1.2298   YZ=              1.1391

 Normal termination of Gaussian 09 at Fri Apr 12 15:05:09 2019.
