 Gaussian 09, Revision D.01,
 Gaussian 09:  AS64L-G09RevD.01 24-Apr-2013

 --------------------------------------------------------------------
 #p hf 3-21g scf=tight NoSymmetry guess=read opt=(tight,modredundant)
 --------------------------------------------------------------------

 -----------------------------------
 Geometry optimization at the 2D-PES
 -----------------------------------
 Symbolic Z-matrix:
 Charge =  0 Multiplicity = 1

 SCF Done:  E(RHF) =  -226.394031374     A.U. after   13 cycles
 SCF Done:  E(RHF) =  -226.394031862     A.U. after   10 cycles
 SCF Done:  E(RHF) =  -226.394031933     A.U. after    9 cycles
 SCF Done:  E(RHF) =  -226.394031943     A.U. after    7 cycles
 SCF Done:  E(RHF) =  -226.394031944     A.U. after    6 cycles
 Optimization completed.
    -- Stationary point found.

                          Input orientation:
 ---------------------------------------------------------------------
 Center     Atomic      Atomic             Coordinates (Angstroms)
 Number     Number       Type             X           Y           Z
 ---------------------------------------------------------------------
      1          6           0        0.724410    0.628965    0.045370
      2          6           0        1.367646   -0.509267    0.003960
      3          1           0        1.189027    1.588053    0.131106
      4          1           0        2.438161   -0.533781    0.007975
      5          1           0        0.839703   -1.439156   -0.053290
      6          8           0       -0.678556    0.666698   -0.028529
      7          8           0       -1.132983    1.073763    1.318089
      8          1           0       -2.085210    0.909210    1.210933
 ---------------------------------------------------------------------

 Alpha  occ. eigenvalues --  -20.52391 -20.51518 -11.23693 -11.17542  -1.46117
 Alpha  occ. eigenvalues --   -1.23094  -1.02996  -0.79237  -0.69060  -0.68317
 Alpha  occ. eigenvalues --   -0.63740  -0.57966  -0.55707  -0.50734  -0.44196
 Alpha  occ. eigenvalues --   -0.38067
 Alpha virt. eigenvalues --    0.15961   0.27368   0.28902   0.31170   0.32075
 Alpha virt. eigenvalues --    0.36306   0.49492   0.56980   0.89314   0.97497
 Alpha virt. eigenvalues --    0.99302   1.07137   1.10404   1.12299   1.23930

 Mulliken charges:
               1
     1  C    0.150827
     2  C   -0.461875
     3  H    0.240707
     4  H    0.227214
     5  H    0.242668
     6  O   -0.420636
     7  O   -0.395236
     8  H    0.416331
 Sum of Mulliken charges =   0.00000

 Dipole moment (field-independent basis, Debye):
    X=              0.0014    Y=             -0.4836    Z=              0.0648  Tot=              0.4879
 Quadrupole moment (field-independent basis, Debye-Ang):
   XX=            -16.0900   YY=            -22.8196   ZZ=            -26.2381
   XY=             -0.2805   XZ=             -2.3812   YZ=             -0.2649

 Normal termination of Gaussian 09 at Fri Apr 12 16:25:37 2019.
