 Gaussian 09, Revision D.01,
 Gaussian 09:  AS64L-G09RevD.01 24-Apr-2013

 --------------------------------------------------------------------
 #p hf 3-21g scf=tight NoSymmetry guess=read opt=(tight,modredundant)
 --------------------------------------------------------------------

 -----------------------------------
 Geometry optimization at the 2D-PES
 -----------------------------------
 Symbolic Z-matrix:
 Charge =  0 Multiplicity = 1

 SCF Done:  E(RHF) =  -226.392868243     A.U. after   13 cycles
 SCF Done:  E(RHF) =  -226.392873522     A.U. after   11 cycles
 SCF Done:  E(RHF) =  -226.392877389     A.U. after   10 cycles
 SCF Done:  E(RHF) =  -226.392877426     A.U. after    8 cycles
 SCF Done:  E(RHF) =  -226.392877433     A.U. after    8 cycles
 SCF Done:  E(RHF) =  -226.392877434     A.U. after    6 cycles
 Optimization completed.
    -- Stationary point found.

                          Input orientation:
 ---------------------------------------------------------------------
 Center     Atomic      Atomic             Coordinates (Angstroms)
 Number     Number       Type             X           Y           Z
 ---------------------------------------------------------------------
      1          6           0        0.721500    0.633744    0.029403
      2          6           0        1.370249   -0.501773   -0.024169
      3          1           0        1.180989    1.598090    0.055167
      4          1           0        2.440582   -0.522685   -0.000917
      5          1           0        0.848904   -1.437182   -0.061105
      6          8           0       -0.688497    0.658832    0.052695
      7          8           0       -1.108379    1.199925   -1.249955
      8          1           0       -1.340454    0.379622   -1.719942
 ---------------------------------------------------------------------

 Alpha  occ. eigenvalues --  -20.52947 -20.52079 -11.24298 -11.18207  -1.46952
 Alpha  occ. eigenvalues --   -1.23264  -1.03761  -0.79818  -0.71756  -0.65882
 Alpha  occ. eigenvalues --   -0.63665  -0.60402  -0.55955  -0.47891  -0.46953
 Alpha  occ. eigenvalues --   -0.38936
 Alpha virt. eigenvalues --    0.15738   0.25847   0.28179   0.30892   0.31958
 Alpha virt. eigenvalues --    0.35870   0.48987   0.56324   0.88707   0.96561
 Alpha virt. eigenvalues --    0.98326   1.06612   1.09691   1.11881   1.23689

 Mulliken charges:
               1
     1  C    0.133446
     2  C   -0.471783
     3  H    0.247244
     4  H    0.231254
     5  H    0.238282
     6  O   -0.400975
     7  O   -0.384870
     8  H    0.407402
 Sum of Mulliken charges =   0.00000

 Dipole moment (field-independent basis, Debye):
    X=              1.5217    Y=             -1.7372    Z=             -1.1741  Tot=              2.5907
 Quadrupole moment (field-independent basis, Debye-Ang):
   XX=            -21.8362   YY=            -24.6511   ZZ=            -22.6218
   XY=              3.0405   XZ=              2.3282   YZ=              1.9236

 Normal termination of Gaussian 09 at Fri Apr 12 15:13:27 2019.
