 Gaussian 09, Revision D.01,
 Gaussian 09:  AS64L-G09RevD.01 24-Apr-2013

 --------------------------------------------------------------------
 #p hf 3-21g scf=tight NoSymmetry guess=read opt=(tight,modredundant)
 --------------------------------------------------------------------

 -----------------------------------
 Geometry optimization at the 2D-PES
 -----------------------------------
 Symbolic Z-matrix:
 Charge =  0 Multiplicity = 1

 SCF Done:  E(RHF) =  -226.379380231     A.U. after   13 cycles
 SCF Done:  E(RHF) =  -226.379391948     A.U. after   13 cycles
 SCF Done:  E(RHF) =  -226.379408272     A.U. after   11 cycles
 SCF Done:  E(RHF) =  -226.379408435     A.U. after    9 cycles
 SCF Done:  E(RHF) =  -226.379408476     A.U. after    8 cycles
 SCF Done:  E(RHF) =  -226.379408477     A.U. after    6 cycles
 Optimization completed.
    -- Stationary point found.

                          Input orientation:
 ---------------------------------------------------------------------
 Center     Atomic      Atomic             Coordinates (Angstroms)
 Number     Number       Type             X           Y           Z
 ---------------------------------------------------------------------
      1          6           0        0.765243    0.631794    0.016917
      2          6           0        1.385502   -0.520163   -0.009163
      3          1           0        1.269867    1.573048    0.118755
      4          1           0        2.453106   -0.563591    0.051153
      5          1           0        0.841637   -1.439452   -0.082198
      6          8           0       -0.634063    0.694199    0.038311
      7          8           0       -1.135647    2.003587   -0.400753
      8          1           0       -0.359705    2.470966   -0.759584
 ---------------------------------------------------------------------

 Alpha  occ. eigenvalues --  -20.54074 -20.53074 -11.25830 -11.17988  -1.47825
 Alpha  occ. eigenvalues --   -1.24599  -1.04272  -0.82081  -0.72039  -0.67008
 Alpha  occ. eigenvalues --   -0.63514  -0.59022  -0.55303  -0.53159  -0.48408
 Alpha  occ. eigenvalues --   -0.36901
 Alpha virt. eigenvalues --    0.16493   0.22844   0.24611   0.30847   0.33818
 Alpha virt. eigenvalues --    0.35442   0.50685   0.56210   0.88592   0.95920
 Alpha virt. eigenvalues --    0.99211   1.05782   1.09747   1.11125   1.23178

 Mulliken charges:
               1
     1  C    0.114020
     2  C   -0.486144
     3  H    0.231822
     4  H    0.231748
     5  H    0.252230
     6  O   -0.379364
     7  O   -0.364133
     8  H    0.399822
 Sum of Mulliken charges =   0.00000

 Dipole moment (field-independent basis, Debye):
    X=              3.3857    Y=              0.9777    Z=             -0.7631  Tot=              3.6057
 Quadrupole moment (field-independent basis, Debye-Ang):
   XX=            -25.2825   YY=            -17.5020   ZZ=            -24.8847
   XY=              3.9518   XZ=             -0.0603   YZ=             -2.1613

 Normal termination of Gaussian 09 at Fri Apr 12 15:33:08 2019.
