 Gaussian 09, Revision D.01,
 Gaussian 09:  AS64L-G09RevD.01 24-Apr-2013

 --------------------------------------------------------------------
 #p hf 3-21g scf=tight NoSymmetry guess=read opt=(tight,modredundant)
 --------------------------------------------------------------------

 -----------------------------------
 Geometry optimization at the 2D-PES
 -----------------------------------
 Symbolic Z-matrix:
 Charge =  0 Multiplicity = 1

 SCF Done:  E(RHF) =  -226.388735097     A.U. after   13 cycles
 SCF Done:  E(RHF) =  -226.388753803     A.U. after   12 cycles
 SCF Done:  E(RHF) =  -226.388767259     A.U. after   11 cycles
 SCF Done:  E(RHF) =  -226.388767373     A.U. after    9 cycles
 SCF Done:  E(RHF) =  -226.388767392     A.U. after    8 cycles
 SCF Done:  E(RHF) =  -226.388767393     A.U. after    7 cycles
 Optimization completed.
    -- Stationary point found.

                          Input orientation:
 ---------------------------------------------------------------------
 Center     Atomic      Atomic             Coordinates (Angstroms)
 Number     Number       Type             X           Y           Z
 ---------------------------------------------------------------------
      1          6           0        0.747657    0.633470    0.059044
      2          6           0        1.377559   -0.511244    0.001968
      3          1           0        1.235996    1.586211    0.102077
      4          1           0        2.446918   -0.546146   -0.030736
      5          1           0        0.836805   -1.434816   -0.026206
      6          8           0       -0.654349    0.686724   -0.014390
      7          8           0       -1.138678    1.692095    0.935763
      8          1           0       -0.845474    2.528475    0.528801
 ---------------------------------------------------------------------

 Alpha  occ. eigenvalues --  -20.53750 -20.52810 -11.24912 -11.17710  -1.47789
 Alpha  occ. eigenvalues --   -1.23975  -1.03700  -0.80963  -0.70457  -0.68595
 Alpha  occ. eigenvalues --   -0.64592  -0.56801  -0.56196  -0.50848  -0.48409
 Alpha  occ. eigenvalues --   -0.37432
 Alpha virt. eigenvalues --    0.17007   0.23846   0.25643   0.31209   0.33831
 Alpha virt. eigenvalues --    0.35311   0.49826   0.56607   0.89081   0.96465
 Alpha virt. eigenvalues --    0.98963   1.06127   1.09991   1.11049   1.24844

 Mulliken charges:
               1
     1  C    0.137549
     2  C   -0.479854
     3  H    0.224262
     4  H    0.228880
     5  H    0.250806
     6  O   -0.390561
     7  O   -0.370735
     8  H    0.399654
 Sum of Mulliken charges =   0.00000

 Dipole moment (field-independent basis, Debye):
    X=              2.4582    Y=              1.6530    Z=             -0.6414  Tot=              3.0309
 Quadrupole moment (field-independent basis, Debye-Ang):
   XX=            -24.2281   YY=            -14.4910   ZZ=            -27.0026
   XY=              0.5853   XZ=              1.1204   YZ=             -0.2645

 Normal termination of Gaussian 09 at Fri Apr 12 16:04:13 2019.
