 Gaussian 09, Revision D.01,
 Gaussian 09:  AS64L-G09RevD.01 24-Apr-2013

 --------------------------------------------------------------------
 #p hf 3-21g scf=tight NoSymmetry guess=read opt=(tight,modredundant)
 --------------------------------------------------------------------

 -----------------------------------
 Geometry optimization at the 2D-PES
 -----------------------------------
 Symbolic Z-matrix:
 Charge =  0 Multiplicity = 1

 SCF Done:  E(RHF) =  -226.392141003     A.U. after   13 cycles
 SCF Done:  E(RHF) =  -226.392143309     A.U. after   11 cycles
 SCF Done:  E(RHF) =  -226.392145349     A.U. after   10 cycles
 SCF Done:  E(RHF) =  -226.392145366     A.U. after    7 cycles
 SCF Done:  E(RHF) =  -226.392145367     A.U. after    6 cycles
 Optimization completed.
    -- Stationary point found.

                          Input orientation:
 ---------------------------------------------------------------------
 Center     Atomic      Atomic             Coordinates (Angstroms)
 Number     Number       Type             X           Y           Z
 ---------------------------------------------------------------------
      1          6           0        0.729610    0.613833    0.044325
      2          6           0        1.379532   -0.519379   -0.012608
      3          1           0        1.199054    1.573424    0.108530
      4          1           0        2.450150   -0.535812    0.004602
      5          1           0        0.859720   -1.454194   -0.061210
      6          8           0       -0.675505    0.685672   -0.007533
      7          8           0       -1.185255    0.129431    1.262561
      8          1           0       -2.074243    0.524395    1.254804
 ---------------------------------------------------------------------

 Alpha  occ. eigenvalues --  -20.52119 -20.51552 -11.23496 -11.17338  -1.45899
 Alpha  occ. eigenvalues --   -1.22866  -1.02971  -0.78895  -0.70289  -0.65961
 Alpha  occ. eigenvalues --   -0.64383  -0.58679  -0.54768  -0.50625  -0.44160
 Alpha  occ. eigenvalues --   -0.37771
 Alpha virt. eigenvalues --    0.15721   0.27073   0.29462   0.30627   0.32297
 Alpha virt. eigenvalues --    0.36952   0.49940   0.57036   0.88955   0.97687
 Alpha virt. eigenvalues --    0.99102   1.07149   1.10543   1.12499   1.23659

 Mulliken charges:
               1
     1  C    0.135762
     2  C   -0.451172
     3  H    0.237421
     4  H    0.225190
     5  H    0.249950
     6  O   -0.421914
     7  O   -0.389550
     8  H    0.414313
 Sum of Mulliken charges =   0.00000

 Dipole moment (field-independent basis, Debye):
    X=              0.1496    Y=              0.4701    Z=              0.3071  Tot=              0.5811
 Quadrupole moment (field-independent basis, Debye-Ang):
   XX=            -16.4727   YY=            -21.7254   ZZ=            -25.6333
   XY=             -0.9016   XZ=             -2.5086   YZ=              1.4468

 Normal termination of Gaussian 09 at Fri Apr 12 16:53:34 2019.
