 Gaussian 09, Revision D.01,
 Gaussian 09:  AS64L-G09RevD.01 24-Apr-2013

 --------------------------------------------------------------------
 #p hf 3-21g scf=tight NoSymmetry guess=read opt=(tight,modredundant)
 --------------------------------------------------------------------

 -----------------------------------
 Geometry optimization at the 2D-PES
 -----------------------------------
 Symbolic Z-matrix:
 Charge =  0 Multiplicity = 1

 SCF Done:  E(RHF) =  -226.390016505     A.U. after   13 cycles
 SCF Done:  E(RHF) =  -226.390025685     A.U. after   11 cycles
 SCF Done:  E(RHF) =  -226.390030724     A.U. after   10 cycles
 SCF Done:  E(RHF) =  -226.390030762     A.U. after    8 cycles
 SCF Done:  E(RHF) =  -226.390030769     A.U. after    7 cycles
 Optimization completed.
    -- Stationary point found.

                          Input orientation:
 ---------------------------------------------------------------------
 Center     Atomic      Atomic             Coordinates (Angstroms)
 Number     Number       Type             X           Y           Z
 ---------------------------------------------------------------------
      1          6           0        0.737457    0.617640    0.044296
      2          6           0        1.384486   -0.516909   -0.009601
      3          1           0        1.210538    1.576704    0.105198
      4          1           0        2.455266   -0.538819   -0.000017
      5          1           0        0.858168   -1.448132   -0.060878
      6          8           0       -0.673940    0.677667   -0.005721
      7          8           0       -1.191671    0.359612    1.334289
      8          1           0       -1.382829    1.249603    1.679836
 ---------------------------------------------------------------------

 Alpha  occ. eigenvalues --  -20.52424 -20.51792 -11.23748 -11.17905  -1.46349
 Alpha  occ. eigenvalues --   -1.22854  -1.03414  -0.79765  -0.69900  -0.67479
 Alpha  occ. eigenvalues --   -0.63173  -0.59020  -0.55959  -0.47731  -0.46114
 Alpha  occ. eigenvalues --   -0.38635
 Alpha virt. eigenvalues --    0.15186   0.26444   0.28961   0.30608   0.32067
 Alpha virt. eigenvalues --    0.36474   0.49515   0.56511   0.88356   0.97140
 Alpha virt. eigenvalues --    0.98545   1.06382   1.09950   1.12101   1.24321

 Mulliken charges:
               1
     1  C    0.113513
     2  C   -0.444211
     3  H    0.229949
     4  H    0.226656
     5  H    0.254632
     6  O   -0.402986
     7  O   -0.382262
     8  H    0.404708
 Sum of Mulliken charges =   0.00000

 Dipole moment (field-independent basis, Debye):
    X=              1.6683    Y=              1.4446    Z=              1.0015  Tot=              2.4235
 Quadrupole moment (field-independent basis, Debye-Ang):
   XX=            -21.8909   YY=            -19.0779   ZZ=            -23.3597
   XY=             -1.8294   XZ=             -1.6785   YZ=              3.9219

 Normal termination of Gaussian 09 at Fri Apr 12 16:46:52 2019.
