 Gaussian 09, Revision D.01,
 Gaussian 09:  AS64L-G09RevD.01 24-Apr-2013

 --------------------------------------------------------------------
 #p hf 3-21g scf=tight NoSymmetry guess=read opt=(tight,modredundant)
 --------------------------------------------------------------------

 -----------------------------------
 Geometry optimization at the 2D-PES
 -----------------------------------
 Symbolic Z-matrix:
 Charge =  0 Multiplicity = 1

 SCF Done:  E(RHF) =  -226.385015126     A.U. after   13 cycles
 SCF Done:  E(RHF) =  -226.385042580     A.U. after   13 cycles
 SCF Done:  E(RHF) =  -226.385091894     A.U. after   12 cycles
 SCF Done:  E(RHF) =  -226.385092407     A.U. after   10 cycles
 SCF Done:  E(RHF) =  -226.385092499     A.U. after   10 cycles
 SCF Done:  E(RHF) =  -226.385092504     A.U. after    8 cycles
 Optimization completed.
    -- Stationary point found.

                          Input orientation:
 ---------------------------------------------------------------------
 Center     Atomic      Atomic             Coordinates (Angstroms)
 Number     Number       Type             X           Y           Z
 ---------------------------------------------------------------------
      1          6           0        0.746800    0.578865    0.034773
      2          6           0        1.437148   -0.534834   -0.037165
      3          1           0        1.186227    1.553513    0.070588
      4          1           0        2.506301   -0.502314   -0.033271
      5          1           0        0.973000   -1.495501   -0.134231
      6          8           0       -0.643704    0.691416    0.043652
      7          8           0       -1.303073   -0.470542    0.647650
      8          1           0       -0.600851   -0.887594    1.182686
 ---------------------------------------------------------------------

 Alpha  occ. eigenvalues --  -20.54297 -20.53090 -11.26249 -11.18505  -1.48232
 Alpha  occ. eigenvalues --   -1.24515  -1.05307  -0.81338  -0.72733  -0.68354
 Alpha  occ. eigenvalues --   -0.63524  -0.58460  -0.55799  -0.53757  -0.47941
 Alpha  occ. eigenvalues --   -0.37768
 Alpha virt. eigenvalues --    0.16276   0.23059   0.27575   0.28775   0.32000
 Alpha virt. eigenvalues --    0.36638   0.49607   0.57195   0.87566   0.95865
 Alpha virt. eigenvalues --    1.00605   1.05000   1.08072   1.11211   1.23192

 Mulliken charges:
               1
     1  C    0.129086
     2  C   -0.530291
     3  H    0.269070
     4  H    0.238097
     5  H    0.237176
     6  O   -0.386715
     7  O   -0.364058
     8  H    0.407634
 Sum of Mulliken charges =   0.00000

 Dipole moment (field-independent basis, Debye):
    X=              3.1490    Y=             -0.8643    Z=              1.1286  Tot=              3.4550
 Quadrupole moment (field-independent basis, Debye-Ang):
   XX=            -25.7028   YY=            -21.0197   ZZ=            -23.6399
   XY=              1.4689   XZ=              0.2148   YZ=             -1.3680

 Normal termination of Gaussian 09 at Fri Apr 12 17:23:02 2019.
