 Gaussian 09, Revision D.01,
 Gaussian 09:  AS64L-G09RevD.01 24-Apr-2013

 --------------------------------------------------------------------
 #p hf 3-21g scf=tight NoSymmetry guess=read opt=(tight,modredundant)
 --------------------------------------------------------------------

 -----------------------------------
 Geometry optimization at the 2D-PES
 -----------------------------------
 Symbolic Z-matrix:
 Charge =  0 Multiplicity = 1

 SCF Done:  E(RHF) =  -226.395805135     A.U. after   13 cycles
 SCF Done:  E(RHF) =  -226.395808307     A.U. after   11 cycles
 SCF Done:  E(RHF) =  -226.395811794     A.U. after   10 cycles
 SCF Done:  E(RHF) =  -226.395811836     A.U. after    8 cycles
 SCF Done:  E(RHF) =  -226.395811841     A.U. after    7 cycles
 Optimization completed.
    -- Stationary point found.

                          Input orientation:
 ---------------------------------------------------------------------
 Center     Atomic      Atomic             Coordinates (Angstroms)
 Number     Number       Type             X           Y           Z
 ---------------------------------------------------------------------
      1          6           0        0.733494    0.580064    0.061203
      2          6           0        1.410157   -0.535204   -0.035916
      3          1           0        1.177015    1.554192    0.087170
      4          1           0        2.480157   -0.510241   -0.052914
      5          1           0        0.923570   -1.486373   -0.065333
      6          8           0       -0.657928    0.709379    0.046217
      7          8           0       -1.255115   -0.504941    0.610735
      8          1           0       -2.062628   -0.117438    0.987879
 ---------------------------------------------------------------------

 Alpha  occ. eigenvalues --  -20.53374 -20.52420 -11.23992 -11.16056  -1.47351
 Alpha  occ. eigenvalues --   -1.23726  -1.02756  -0.79077  -0.71487  -0.65178
 Alpha  occ. eigenvalues --   -0.62960  -0.62336  -0.54010  -0.50239  -0.47418
 Alpha  occ. eigenvalues --   -0.35921
 Alpha virt. eigenvalues --    0.18493   0.24285   0.28888   0.30528   0.33788
 Alpha virt. eigenvalues --    0.37335   0.50251   0.58586   0.89221   0.97472
 Alpha virt. eigenvalues --    1.00470   1.07454   1.10798   1.12868   1.23641

 Mulliken charges:
               1
     1  C    0.149364
     2  C   -0.492490
     3  H    0.252684
     4  H    0.219885
     5  H    0.254368
     6  O   -0.420917
     7  O   -0.384880
     8  H    0.421986
 Sum of Mulliken charges =   0.00000

 Dipole moment (field-independent basis, Debye):
    X=             -0.0406    Y=              0.5411    Z=              0.9881  Tot=              1.1273
 Quadrupole moment (field-independent basis, Debye-Ang):
   XX=            -17.1303   YY=            -22.8861   ZZ=            -24.3645
   XY=              0.6765   XZ=             -2.9720   YZ=              0.6480

 Normal termination of Gaussian 09 at Fri Apr 12 17:27:02 2019.
