 Gaussian 09, Revision D.01,
 Gaussian 09:  AS64L-G09RevD.01 24-Apr-2013

 --------------------------------------------------------------------
 #p hf 3-21g scf=tight NoSymmetry guess=read opt=(tight,modredundant)
 --------------------------------------------------------------------

 -----------------------------------
 Geometry optimization at the 2D-PES
 -----------------------------------
 Symbolic Z-matrix:
 Charge =  0 Multiplicity = 1

 SCF Done:  E(RHF) =  -226.397885020     A.U. after   13 cycles
 SCF Done:  E(RHF) =  -226.397889624     A.U. after   11 cycles
 SCF Done:  E(RHF) =  -226.397895901     A.U. after   10 cycles
 SCF Done:  E(RHF) =  -226.397895970     A.U. after    9 cycles
 SCF Done:  E(RHF) =  -226.397895979     A.U. after    8 cycles
 Optimization completed.
    -- Stationary point found.

                          Input orientation:
 ---------------------------------------------------------------------
 Center     Atomic      Atomic             Coordinates (Angstroms)
 Number     Number       Type             X           Y           Z
 ---------------------------------------------------------------------
      1          6           0        0.735345    0.570052    0.046313
      2          6           0        1.423511   -0.538456   -0.047006
      3          1           0        1.167355    1.548684    0.090683
      4          1           0        2.492949   -0.498740   -0.060430
      5          1           0        0.947442   -1.492462   -0.102072
      6          8           0       -0.653443    0.708654    0.052496
      7          8           0       -1.278046   -0.605897    0.175497
      8          1           0       -1.895107   -0.426619    0.904687
 ---------------------------------------------------------------------

 Alpha  occ. eigenvalues --  -20.53962 -20.52847 -11.24266 -11.15849  -1.48055
 Alpha  occ. eigenvalues --   -1.24059  -1.02893  -0.79358  -0.71347  -0.66958
 Alpha  occ. eigenvalues --   -0.64140  -0.59953  -0.54001  -0.50505  -0.48662
 Alpha  occ. eigenvalues --   -0.35817
 Alpha virt. eigenvalues --    0.19906   0.22915   0.28748   0.30228   0.34038
 Alpha virt. eigenvalues --    0.37358   0.49933   0.59053   0.89154   0.97054
 Alpha virt. eigenvalues --    1.01741   1.07448   1.10661   1.13077   1.22169

 Mulliken charges:
               1
     1  C    0.149724
     2  C   -0.506703
     3  H    0.257156
     4  H    0.219036
     5  H    0.254400
     6  O   -0.414806
     7  O   -0.380093
     8  H    0.421286
 Sum of Mulliken charges =   0.00000

 Dipole moment (field-independent basis, Debye):
    X=              0.2555    Y=              0.1544    Z=              1.6146  Tot=              1.6420
 Quadrupole moment (field-independent basis, Debye-Ang):
   XX=            -18.9113   YY=            -22.7785   ZZ=            -23.9393
   XY=              1.7602   XZ=             -3.4378   YZ=             -0.4091

 Normal termination of Gaussian 09 at Fri Apr 12 17:48:09 2019.
