 Gaussian 09, Revision D.01,
 Gaussian 09:  AS64L-G09RevD.01 24-Apr-2013

 --------------------------------------------------------------------
 #p hf 3-21g scf=tight NoSymmetry guess=read opt=(tight,modredundant)
 --------------------------------------------------------------------

 -----------------------------------
 Geometry optimization at the 2D-PES
 -----------------------------------
 Symbolic Z-matrix:
 Charge =  0 Multiplicity = 1

 SCF Done:  E(RHF) =  -226.396467805     A.U. after   13 cycles
 SCF Done:  E(RHF) =  -226.396472330     A.U. after   11 cycles
 SCF Done:  E(RHF) =  -226.396478090     A.U. after   11 cycles
 SCF Done:  E(RHF) =  -226.396478148     A.U. after    8 cycles
 SCF Done:  E(RHF) =  -226.396478152     A.U. after    6 cycles
 Optimization completed.
    -- Stationary point found.

                          Input orientation:
 ---------------------------------------------------------------------
 Center     Atomic      Atomic             Coordinates (Angstroms)
 Number     Number       Type             X           Y           Z
 ---------------------------------------------------------------------
      1          6           0        0.734162    0.578713    0.059966
      2          6           0        1.412870   -0.535404   -0.039016
      3          1           0        1.175895    1.552991    0.092706
      4          1           0        2.482589   -0.508954   -0.058893
      5          1           0        0.928840   -1.487698   -0.056071
      6          8           0       -0.657667    0.709317    0.045680
      7          8           0       -1.258963   -0.502252    0.607088
      8          1           0       -2.012542   -0.604868    0.001674
 ---------------------------------------------------------------------

 Alpha  occ. eigenvalues --  -20.53540 -20.52694 -11.24136 -11.16214  -1.47596
 Alpha  occ. eigenvalues --   -1.23868  -1.02956  -0.79073  -0.70877  -0.67871
 Alpha  occ. eigenvalues --   -0.64705  -0.57890  -0.53540  -0.52279  -0.47757
 Alpha  occ. eigenvalues --   -0.35962
 Alpha virt. eigenvalues --    0.18203   0.24441   0.29001   0.30189   0.33403
 Alpha virt. eigenvalues --    0.37354   0.50034   0.58368   0.89137   0.97196
 Alpha virt. eigenvalues --    1.01325   1.07297   1.10477   1.13005   1.22163

 Mulliken charges:
               1
     1  C    0.150857
     2  C   -0.494587
     3  H    0.255820
     4  H    0.221456
     5  H    0.244905
     6  O   -0.417885
     7  O   -0.379853
     8  H    0.419286
 Sum of Mulliken charges =   0.00000

 Dipole moment (field-independent basis, Debye):
    X=              0.0581    Y=             -0.4662    Z=             -1.1256  Tot=              1.2197
 Quadrupole moment (field-independent basis, Debye-Ang):
   XX=            -17.6385   YY=            -22.1177   ZZ=            -26.5084
   XY=              3.0128   XZ=              1.8002   YZ=              0.9071

 Normal termination of Gaussian 09 at Fri Apr 12 17:28:47 2019.
