 Gaussian 09, Revision D.01,
 Gaussian 09:  AS64L-G09RevD.01 24-Apr-2013

 --------------------------------------------------------------------
 #p hf 3-21g scf=tight NoSymmetry guess=read opt=(tight,modredundant)
 --------------------------------------------------------------------

 -----------------------------------
 Geometry optimization at the 2D-PES
 -----------------------------------
 Symbolic Z-matrix:
 Charge =  0 Multiplicity = 1

 SCF Done:  E(RHF) =  -226.394274775     A.U. after   13 cycles
 SCF Done:  E(RHF) =  -226.394280200     A.U. after   11 cycles
 SCF Done:  E(RHF) =  -226.394283254     A.U. after   10 cycles
 SCF Done:  E(RHF) =  -226.394283319     A.U. after    8 cycles
 SCF Done:  E(RHF) =  -226.394283326     A.U. after    6 cycles
 Optimization completed.
    -- Stationary point found.

                          Input orientation:
 ---------------------------------------------------------------------
 Center     Atomic      Atomic             Coordinates (Angstroms)
 Number     Number       Type             X           Y           Z
 ---------------------------------------------------------------------
      1          6           0        0.727016    0.629719    0.044335
      2          6           0        1.368788   -0.508973    0.003351
      3          1           0        1.192568    1.588638    0.130934
      4          1           0        2.439244   -0.535749    0.007164
      5          1           0        0.837019   -1.436706   -0.050946
      6          8           0       -0.677284    0.665908   -0.028796
      7          8           0       -1.135436    1.072533    1.313043
      8          1           0       -1.859421    1.671912    1.063849
 ---------------------------------------------------------------------

 Alpha  occ. eigenvalues --  -20.52550 -20.51703 -11.23699 -11.17494  -1.46389
 Alpha  occ. eigenvalues --   -1.23129  -1.03000  -0.79307  -0.69485  -0.67878
 Alpha  occ. eigenvalues --   -0.64805  -0.56971  -0.55029  -0.50995  -0.45063
 Alpha  occ. eigenvalues --   -0.37907
 Alpha virt. eigenvalues --    0.16055   0.27147   0.28747   0.31253   0.32284
 Alpha virt. eigenvalues --    0.36149   0.49269   0.56972   0.89281   0.97433
 Alpha virt. eigenvalues --    0.99333   1.07245   1.10629   1.12879   1.22627

 Mulliken charges:
               1
     1  C    0.145056
     2  C   -0.460067
     3  H    0.233520
     4  H    0.226379
     5  H    0.248268
     6  O   -0.414337
     7  O   -0.391390
     8  H    0.412571
 Sum of Mulliken charges =   0.00000

 Dipole moment (field-independent basis, Debye):
    X=              0.4843    Y=              1.1091    Z=             -0.2434  Tot=              1.2344
 Quadrupole moment (field-independent basis, Debye-Ang):
   XX=            -18.2067   YY=            -18.4501   ZZ=            -26.9606
   XY=             -3.1634   XZ=             -1.1292   YZ=              1.2108

 Normal termination of Gaussian 09 at Fri Apr 12 16:24:08 2019.
