 Gaussian 09, Revision D.01,
 Gaussian 09:  AS64L-G09RevD.01 24-Apr-2013

 --------------------------------------------------------------------
 #p hf 3-21g scf=tight NoSymmetry guess=read opt=(tight,modredundant)
 --------------------------------------------------------------------

 -----------------------------------
 Geometry optimization at the 2D-PES
 -----------------------------------
 Symbolic Z-matrix:
 Charge =  0 Multiplicity = 1

 SCF Done:  E(RHF) =  -226.395962675     A.U. after   13 cycles
 SCF Done:  E(RHF) =  -226.395963728     A.U. after   10 cycles
 SCF Done:  E(RHF) =  -226.395964509     A.U. after   10 cycles
 SCF Done:  E(RHF) =  -226.395964531     A.U. after    7 cycles
 SCF Done:  E(RHF) =  -226.395964532     A.U. after    6 cycles
 Optimization completed.
    -- Stationary point found.

                          Input orientation:
 ---------------------------------------------------------------------
 Center     Atomic      Atomic             Coordinates (Angstroms)
 Number     Number       Type             X           Y           Z
 ---------------------------------------------------------------------
      1          6           0        0.721415    0.633437    0.047229
      2          6           0        1.367348   -0.504531   -0.004673
      3          1           0        1.176792    1.597871    0.102171
      4          1           0        2.437340   -0.516199   -0.002345
      5          1           0        0.851303   -1.441497   -0.053717
      6          8           0       -0.675054    0.671748    0.002734
      7          8           0       -1.055275    2.051983    0.324691
      8          1           0       -2.000677    2.007822    0.105968
 ---------------------------------------------------------------------

 Alpha  occ. eigenvalues --  -20.53610 -20.52757 -11.24267 -11.16130  -1.47741
 Alpha  occ. eigenvalues --   -1.24139  -1.02518  -0.79838  -0.70462  -0.67249
 Alpha  occ. eigenvalues --   -0.64080  -0.59452  -0.55299  -0.50742  -0.48509
 Alpha  occ. eigenvalues --   -0.35460
 Alpha virt. eigenvalues --    0.19481   0.22812   0.27635   0.32257   0.34132
 Alpha virt. eigenvalues --    0.36095   0.50234   0.57874   0.90400   0.97418
 Alpha virt. eigenvalues --    1.00280   1.07055   1.11024   1.12307   1.23329

 Mulliken charges:
               1
     1  C    0.174039
     2  C   -0.512889
     3  H    0.265111
     4  H    0.225568
     5  H    0.235796
     6  O   -0.422376
     7  O   -0.389222
     8  H    0.423975
 Sum of Mulliken charges =   0.00000

 Dipole moment (field-independent basis, Debye):
    X=             -0.3314    Y=              0.4107    Z=             -0.3557  Tot=              0.6364
 Quadrupole moment (field-independent basis, Debye-Ang):
   XX=            -16.6690   YY=            -21.8957   ZZ=            -26.0150
   XY=             -2.8019   XZ=              0.3434   YZ=             -0.7024

 Normal termination of Gaussian 09 at Fri Apr 12 15:48:18 2019.
