 Gaussian 09, Revision D.01,
 Gaussian 09:  AS64L-G09RevD.01 24-Apr-2013

 --------------------------------------------------------------------
 #p hf 3-21g scf=tight NoSymmetry guess=read opt=(tight,modredundant)
 --------------------------------------------------------------------

 -----------------------------------
 Geometry optimization at the 2D-PES
 -----------------------------------
 Symbolic Z-matrix:
 Charge =  0 Multiplicity = 1

 SCF Done:  E(RHF) =  -226.392517147     A.U. after   13 cycles
 SCF Done:  E(RHF) =  -226.392523837     A.U. after   11 cycles
 SCF Done:  E(RHF) =  -226.392527616     A.U. after   10 cycles
 SCF Done:  E(RHF) =  -226.392527685     A.U. after    9 cycles
 SCF Done:  E(RHF) =  -226.392527688     A.U. after    6 cycles
 SCF Done:  E(RHF) =  -226.392527688     A.U. after    6 cycles
 Optimization completed.
    -- Stationary point found.

                          Input orientation:
 ---------------------------------------------------------------------
 Center     Atomic      Atomic             Coordinates (Angstroms)
 Number     Number       Type             X           Y           Z
 ---------------------------------------------------------------------
      1          6           0        0.732300    0.604529    0.056265
      2          6           0        1.391167   -0.522605   -0.021126
      3          1           0        1.195135    1.568048    0.101124
      4          1           0        2.461777   -0.527037   -0.022681
      5          1           0        0.884173   -1.464927   -0.050539
      6          8           0       -0.670417    0.695226    0.014629
      7          8           0       -1.210058   -0.080060    1.145694
      8          1           0       -2.056722   -0.354662    0.754246
 ---------------------------------------------------------------------

 Alpha  occ. eigenvalues --  -20.52449 -20.51920 -11.23724 -11.17217  -1.46348
 Alpha  occ. eigenvalues --   -1.23134  -1.03108  -0.78917  -0.69707  -0.68195
 Alpha  occ. eigenvalues --   -0.64289  -0.57563  -0.54513  -0.51365  -0.45573
 Alpha  occ. eigenvalues --   -0.37106
 Alpha virt. eigenvalues --    0.15929   0.26580   0.29435   0.30217   0.32194
 Alpha virt. eigenvalues --    0.37136   0.50047   0.57140   0.88925   0.97385
 Alpha virt. eigenvalues --    0.99842   1.06891   1.10222   1.12735   1.22851

 Mulliken charges:
               1
     1  C    0.141551
     2  C   -0.461381
     3  H    0.245559
     4  H    0.226053
     5  H    0.239883
     6  O   -0.421739
     7  O   -0.384863
     8  H    0.414937
 Sum of Mulliken charges =   0.00000

 Dipole moment (field-independent basis, Debye):
    X=              0.1542    Y=             -0.9093    Z=             -0.5290  Tot=              1.0632
 Quadrupole moment (field-independent basis, Debye-Ang):
   XX=            -16.7670   YY=            -22.0632   ZZ=            -27.2282
   XY=              2.8704   XZ=             -0.3597   YZ=             -0.0666

 Normal termination of Gaussian 09 at Fri Apr 12 16:59:30 2019.
