 Gaussian 09, Revision D.01,
 Gaussian 09:  AS64L-G09RevD.01 24-Apr-2013

 --------------------------------------------------------------------
 #p hf 3-21g scf=tight NoSymmetry guess=read opt=(tight,modredundant)
 --------------------------------------------------------------------

 -----------------------------------
 Geometry optimization at the 2D-PES
 -----------------------------------
 Symbolic Z-matrix:
 Charge =  0 Multiplicity = 1

 SCF Done:  E(RHF) =  -226.394625516     A.U. after   13 cycles
 SCF Done:  E(RHF) =  -226.394626502     A.U. after   11 cycles
 SCF Done:  E(RHF) =  -226.394627505     A.U. after   10 cycles
 SCF Done:  E(RHF) =  -226.394627520     A.U. after    8 cycles
 SCF Done:  E(RHF) =  -226.394627521     A.U. after    6 cycles
 Optimization completed.
    -- Stationary point found.

                          Input orientation:
 ---------------------------------------------------------------------
 Center     Atomic      Atomic             Coordinates (Angstroms)
 Number     Number       Type             X           Y           Z
 ---------------------------------------------------------------------
      1          6           0        0.733182    0.589699    0.060820
      2          6           0        1.402281   -0.530552   -0.031074
      3          1           0        1.184500    1.560010    0.089495
      4          1           0        2.472646   -0.516871   -0.042137
      5          1           0        0.906881   -1.477937   -0.057969
      6          8           0       -0.661483    0.708166    0.036472
      7          8           0       -1.236531   -0.398260    0.814502
      8          1           0       -2.114403   -0.018914    0.989137
 ---------------------------------------------------------------------

 Alpha  occ. eigenvalues --  -20.52992 -20.52200 -11.23845 -11.16333  -1.46914
 Alpha  occ. eigenvalues --   -1.23497  -1.02773  -0.78939  -0.71291  -0.64717
 Alpha  occ. eigenvalues --   -0.64142  -0.61149  -0.54104  -0.50547  -0.46522
 Alpha  occ. eigenvalues --   -0.36180
 Alpha virt. eigenvalues --    0.17612   0.25088   0.29070   0.30600   0.33400
 Alpha virt. eigenvalues --    0.37294   0.50324   0.58142   0.89189   0.97618
 Alpha virt. eigenvalues --    0.99947   1.07377   1.10772   1.12652   1.24036

 Mulliken charges:
               1
     1  C    0.146760
     2  C   -0.482037
     3  H    0.249767
     4  H    0.221126
     5  H    0.252793
     6  O   -0.422840
     7  O   -0.386040
     8  H    0.420471
 Sum of Mulliken charges =   0.00000

 Dipole moment (field-independent basis, Debye):
    X=             -0.1007    Y=              0.4911    Z=              0.6039  Tot=              0.7849
 Quadrupole moment (field-independent basis, Debye-Ang):
   XX=            -16.4605   YY=            -22.6979   ZZ=            -24.9884
   XY=              0.4717   XZ=             -2.5237   YZ=              0.9113

 Normal termination of Gaussian 09 at Fri Apr 12 17:18:03 2019.
