 Gaussian 09, Revision D.01,
 Gaussian 09:  AS64L-G09RevD.01 24-Apr-2013

 --------------------------------------------------------------------
 #p hf 3-21g scf=tight NoSymmetry guess=read opt=(tight,modredundant)
 --------------------------------------------------------------------

 -----------------------------------
 Geometry optimization at the 2D-PES
 -----------------------------------
 Symbolic Z-matrix:
 Charge =  0 Multiplicity = 1

 SCF Done:  E(RHF) =  -226.385420845     A.U. after   13 cycles
 SCF Done:  E(RHF) =  -226.385395984     A.U. after   13 cycles
 SCF Done:  E(RHF) =  -226.385562484     A.U. after   12 cycles
 SCF Done:  E(RHF) =  -226.385563371     A.U. after   10 cycles
 SCF Done:  E(RHF) =  -226.385563509     A.U. after    9 cycles
 SCF Done:  E(RHF) =  -226.385563525     A.U. after    8 cycles
 Optimization completed.
    -- Stationary point found.

                          Input orientation:
 ---------------------------------------------------------------------
 Center     Atomic      Atomic             Coordinates (Angstroms)
 Number     Number       Type             X           Y           Z
 ---------------------------------------------------------------------
      1          6           0        0.747915    0.562172    0.004919
      2          6           0        1.467689   -0.532918   -0.056312
      3          1           0        1.174383    1.539782    0.088919
      4          1           0        2.534326   -0.459205   -0.029469
      5          1           0        1.063040   -1.514717   -0.190165
      6          8           0       -0.633572    0.697909    0.040204
      7          8           0       -1.361134   -0.566386    0.002904
      8          1           0       -0.764061   -1.202915    0.435715
 ---------------------------------------------------------------------

 Alpha  occ. eigenvalues --  -20.55016 -20.53509 -11.26510 -11.18120  -1.48987
 Alpha  occ. eigenvalues --   -1.25112  -1.05290  -0.81447  -0.73315  -0.68337
 Alpha  occ. eigenvalues --   -0.65077  -0.58078  -0.54937  -0.54118  -0.49250
 Alpha  occ. eigenvalues --   -0.37371
 Alpha virt. eigenvalues --    0.18193   0.21126   0.27112   0.27787   0.34914
 Alpha virt. eigenvalues --    0.36695   0.49189   0.59570   0.87936   0.95516
 Alpha virt. eigenvalues --    1.01019   1.05483   1.07985   1.10919   1.23889

 Mulliken charges:
               1
     1  C    0.151613
     2  C   -0.543632
     3  H    0.273994
     4  H    0.240030
     5  H    0.215105
     6  O   -0.389488
     7  O   -0.362198
     8  H    0.414576
 Sum of Mulliken charges =   0.00000

 Dipole moment (field-independent basis, Debye):
    X=              2.7777    Y=             -1.1864    Z=              0.8211  Tot=              3.1300
 Quadrupole moment (field-independent basis, Debye-Ang):
   XX=            -25.6351   YY=            -19.8772   ZZ=            -25.4131
   XY=              2.1325   XZ=             -0.5928   YZ=             -0.8664

 Normal termination of Gaussian 09 at Fri Apr 12 18:03:39 2019.
