 Gaussian 09, Revision D.01,
 Gaussian 09:  AS64L-G09RevD.01 24-Apr-2013

 --------------------------------------------------------------------
 #p hf 3-21g scf=tight NoSymmetry guess=read opt=(tight,modredundant)
 --------------------------------------------------------------------

 -----------------------------------
 Geometry optimization at the 2D-PES
 -----------------------------------
 Symbolic Z-matrix:
 Charge =  0 Multiplicity = 1

 SCF Done:  E(RHF) =  -226.391759604     A.U. after   13 cycles
 SCF Done:  E(RHF) =  -226.391766033     A.U. after   11 cycles
 SCF Done:  E(RHF) =  -226.391769797     A.U. after   10 cycles
 SCF Done:  E(RHF) =  -226.391769845     A.U. after    8 cycles
 SCF Done:  E(RHF) =  -226.391769848     A.U. after    6 cycles
 Optimization completed.
    -- Stationary point found.

                          Input orientation:
 ---------------------------------------------------------------------
 Center     Atomic      Atomic             Coordinates (Angstroms)
 Number     Number       Type             X           Y           Z
 ---------------------------------------------------------------------
      1          6           0        0.735317    0.605187    0.053626
      2          6           0        1.392435   -0.522743   -0.019967
      3          1           0        1.200030    1.568838    0.096959
      4          1           0        2.463253   -0.528638   -0.017726
      5          1           0        0.881030   -1.462497   -0.057834
      6          8           0       -0.669891    0.692714    0.014459
      7          8           0       -1.213273   -0.075261    1.146639
      8          1           0       -1.820533    0.587335    1.518525
 ---------------------------------------------------------------------

 Alpha  occ. eigenvalues --  -20.52437 -20.51838 -11.23652 -11.17159  -1.46353
 Alpha  occ. eigenvalues --   -1.23000  -1.03043  -0.79177  -0.70567  -0.65714
 Alpha  occ. eigenvalues --   -0.63650  -0.60323  -0.55001  -0.49169  -0.45555
 Alpha  occ. eigenvalues --   -0.37499
 Alpha virt. eigenvalues --    0.16088   0.26045   0.29383   0.30599   0.32517
 Alpha virt. eigenvalues --    0.37016   0.50032   0.57175   0.88751   0.97434
 Alpha virt. eigenvalues --    0.99207   1.06914   1.10450   1.12888   1.23336

 Mulliken charges:
               1
     1  C    0.130372
     2  C   -0.458451
     3  H    0.239443
     4  H    0.224118
     5  H    0.252901
     6  O   -0.416368
     7  O   -0.385762
     8  H    0.413747
 Sum of Mulliken charges =   0.00000

 Dipole moment (field-independent basis, Debye):
    X=              0.6812    Y=              1.0188    Z=              1.0854  Tot=              1.6371
 Quadrupole moment (field-independent basis, Debye-Ang):
   XX=            -18.9170   YY=            -21.5386   ZZ=            -23.3960
   XY=             -1.3798   XZ=             -3.1668   YZ=              2.5092

 Normal termination of Gaussian 09 at Fri Apr 12 17:01:47 2019.
