 Gaussian 09, Revision D.01,
 Gaussian 09:  AS64L-G09RevD.01 24-Apr-2013

 --------------------------------------------------------------------
 #p hf 3-21g scf=tight NoSymmetry guess=read opt=(tight,modredundant)
 --------------------------------------------------------------------

 -----------------------------------
 Geometry optimization at the 2D-PES
 -----------------------------------
 Symbolic Z-matrix:
 Charge =  0 Multiplicity = 1

 SCF Done:  E(RHF) =  -226.383364277     A.U. after   13 cycles
 SCF Done:  E(RHF) =  -226.383381228     A.U. after   13 cycles
 SCF Done:  E(RHF) =  -226.383401982     A.U. after   12 cycles
 SCF Done:  E(RHF) =  -226.383402074     A.U. after    9 cycles
 SCF Done:  E(RHF) =  -226.383402094     A.U. after    8 cycles
 SCF Done:  E(RHF) =  -226.383402094     A.U. after    6 cycles
 Optimization completed.
    -- Stationary point found.

                          Input orientation:
 ---------------------------------------------------------------------
 Center     Atomic      Atomic             Coordinates (Angstroms)
 Number     Number       Type             X           Y           Z
 ---------------------------------------------------------------------
      1          6           0        0.759500    0.629467    0.061690
      2          6           0        1.383112   -0.518672    0.002155
      3          1           0        1.261562    1.577867    0.082799
      4          1           0        2.451955   -0.559457   -0.039596
      5          1           0        0.836592   -1.438940   -0.020972
      6          8           0       -0.639888    0.695289   -0.013191
      7          8           0       -1.160254    1.695576    0.928837
      8          1           0       -0.526877    2.434904    0.868212
 ---------------------------------------------------------------------

 Alpha  occ. eigenvalues --  -20.53828 -20.52769 -11.25387 -11.18196  -1.47609
 Alpha  occ. eigenvalues --   -1.24185  -1.04155  -0.81743  -0.71036  -0.68184
 Alpha  occ. eigenvalues --   -0.63402  -0.58007  -0.56422  -0.51609  -0.47853
 Alpha  occ. eigenvalues --   -0.37607
 Alpha virt. eigenvalues --    0.16253   0.23926   0.24675   0.30787   0.34070
 Alpha virt. eigenvalues --    0.35234   0.50540   0.56179   0.88765   0.95949
 Alpha virt. eigenvalues --    0.99205   1.05578   1.09820   1.11001   1.24096

 Mulliken charges:
               1
     1  C    0.120078
     2  C   -0.473600
     3  H    0.220783
     4  H    0.230820
     5  H    0.254081
     6  O   -0.381676
     7  O   -0.367007
     8  H    0.396521
 Sum of Mulliken charges =   0.00000

 Dipole moment (field-independent basis, Debye):
    X=              3.1600    Y=              1.3324    Z=              0.0359  Tot=              3.4296
 Quadrupole moment (field-independent basis, Debye-Ang):
   XX=            -25.0666   YY=            -15.6696   ZZ=            -26.0003
   XY=              2.4337   XZ=              1.0703   YZ=              1.4141

 Normal termination of Gaussian 09 at Fri Apr 12 16:05:33 2019.
