 Gaussian 09, Revision D.01,
 Gaussian 09:  AS64L-G09RevD.01 24-Apr-2013

 --------------------------------------------------------------------
 #p hf 3-21g scf=tight NoSymmetry guess=read opt=(tight,modredundant)
 --------------------------------------------------------------------

 -----------------------------------
 Geometry optimization at the 2D-PES
 -----------------------------------
 Symbolic Z-matrix:
 Charge =  0 Multiplicity = 1

 SCF Done:  E(RHF) =  -226.380913156     A.U. after   13 cycles
 SCF Done:  E(RHF) =  -226.380918448     A.U. after   12 cycles
 SCF Done:  E(RHF) =  -226.380928473     A.U. after   11 cycles
 SCF Done:  E(RHF) =  -226.380928493     A.U. after    9 cycles
 SCF Done:  E(RHF) =  -226.380928494     A.U. after    6 cycles
 Optimization completed.
    -- Stationary point found.

                          Input orientation:
 ---------------------------------------------------------------------
 Center     Atomic      Atomic             Coordinates (Angstroms)
 Number     Number       Type             X           Y           Z
 ---------------------------------------------------------------------
      1          6           0        0.765904    0.627731    0.062028
      2          6           0        1.385811   -0.522665    0.001655
      3          1           0        1.271003    1.575142    0.072331
      4          1           0        2.454452   -0.566548   -0.042730
      5          1           0        0.836347   -1.441214   -0.021340
      6          8           0       -0.632587    0.697477   -0.011029
      7          8           0       -1.167763    1.697484    0.927973
      8          1           0       -0.414979    2.282811    1.131037
 ---------------------------------------------------------------------

 Alpha  occ. eigenvalues --  -20.53782 -20.52659 -11.25538 -11.18438  -1.47396
 Alpha  occ. eigenvalues --   -1.24260  -1.04343  -0.81963  -0.71422  -0.67841
 Alpha  occ. eigenvalues --   -0.62546  -0.58828  -0.56203  -0.52326  -0.47372
 Alpha  occ. eigenvalues --   -0.37659
 Alpha virt. eigenvalues --    0.15636   0.24388   0.24692   0.30580   0.33738
 Alpha virt. eigenvalues --    0.35200   0.50386   0.55995   0.88466   0.95845
 Alpha virt. eigenvalues --    0.99243   1.05696   1.09657   1.11047   1.23623

 Mulliken charges:
               1
     1  C    0.106876
     2  C   -0.471020
     3  H    0.225319
     4  H    0.231846
     5  H    0.255352
     6  O   -0.377910
     7  O   -0.367859
     8  H    0.397396
 Sum of Mulliken charges =   0.00000

 Dipole moment (field-independent basis, Debye):
    X=              3.4214    Y=              0.9909    Z=              0.5468  Tot=              3.6038
 Quadrupole moment (field-independent basis, Debye-Ang):
   XX=            -25.2467   YY=            -17.2126   ZZ=            -24.8738
   XY=              3.1615   XZ=              1.0634   YZ=              2.4116

 Normal termination of Gaussian 09 at Fri Apr 12 16:05:59 2019.
