 Gaussian 09, Revision D.01,
 Gaussian 09:  AS64L-G09RevD.01 24-Apr-2013

 --------------------------------------------------------------------
 #p hf 3-21g scf=tight NoSymmetry guess=read opt=(tight,modredundant)
 --------------------------------------------------------------------

 -----------------------------------
 Geometry optimization at the 2D-PES
 -----------------------------------
 Symbolic Z-matrix:
 Charge =  0 Multiplicity = 1

 SCF Done:  E(RHF) =  -226.392059821     A.U. after   13 cycles
 SCF Done:  E(RHF) =  -226.392062354     A.U. after   11 cycles
 SCF Done:  E(RHF) =  -226.392063012     A.U. after   10 cycles
 SCF Done:  E(RHF) =  -226.392063062     A.U. after    8 cycles
 SCF Done:  E(RHF) =  -226.392063063     A.U. after    6 cycles
 Optimization completed.
    -- Stationary point found.

                          Input orientation:
 ---------------------------------------------------------------------
 Center     Atomic      Atomic             Coordinates (Angstroms)
 Number     Number       Type             X           Y           Z
 ---------------------------------------------------------------------
      1          6           0        0.729978    0.612408    0.048362
      2          6           0        1.381480   -0.519783   -0.013781
      3          1           0        1.198697    1.572226    0.107596
      4          1           0        2.452125   -0.534497   -0.003639
      5          1           0        0.865089   -1.456835   -0.056529
      6          8           0       -0.674860    0.687628   -0.002462
      7          8           0       -1.190767    0.127881    1.263125
      8          1           0       -2.099604   -0.070320    0.979325
 ---------------------------------------------------------------------

 Alpha  occ. eigenvalues --  -20.52169 -20.51628 -11.23582 -11.17454  -1.45974
 Alpha  occ. eigenvalues --   -1.22933  -1.03090  -0.78902  -0.69513  -0.67955
 Alpha  occ. eigenvalues --   -0.64057  -0.57676  -0.54787  -0.51166  -0.44553
 Alpha  occ. eigenvalues --   -0.37634
 Alpha virt. eigenvalues --    0.15554   0.27252   0.29453   0.30336   0.32008
 Alpha virt. eigenvalues --    0.37007   0.49923   0.56956   0.88930   0.97498
 Alpha virt. eigenvalues --    0.99482   1.06899   1.10244   1.12546   1.23303

 Mulliken charges:
               1
     1  C    0.139254
     2  C   -0.452647
     3  H    0.241191
     4  H    0.226649
     5  H    0.242163
     6  O   -0.422880
     7  O   -0.388048
     8  H    0.414318
 Sum of Mulliken charges =   0.00000

 Dipole moment (field-independent basis, Debye):
    X=              0.1014    Y=             -0.7623    Z=             -0.2811  Tot=              0.8188
 Quadrupole moment (field-independent basis, Debye-Ang):
   XX=            -16.2300   YY=            -22.3300   ZZ=            -26.9792
   XY=              2.0151   XZ=             -1.2312   YZ=             -0.1526

 Normal termination of Gaussian 09 at Fri Apr 12 16:54:29 2019.
