 Gaussian 09, Revision D.01,
 Gaussian 09:  AS64L-G09RevD.01 24-Apr-2013

 --------------------------------------------------------------------
 #p hf 3-21g scf=tight NoSymmetry guess=read opt=(tight,modredundant)
 --------------------------------------------------------------------

 -----------------------------------
 Geometry optimization at the 2D-PES
 -----------------------------------
 Symbolic Z-matrix:
 Charge =  0 Multiplicity = 1

 SCF Done:  E(RHF) =  -226.392152369     A.U. after   13 cycles
 SCF Done:  E(RHF) =  -226.392154485     A.U. after   11 cycles
 SCF Done:  E(RHF) =  -226.392156229     A.U. after   10 cycles
 SCF Done:  E(RHF) =  -226.392156246     A.U. after    7 cycles
 SCF Done:  E(RHF) =  -226.392156247     A.U. after    6 cycles
 Optimization completed.
    -- Stationary point found.

                          Input orientation:
 ---------------------------------------------------------------------
 Center     Atomic      Atomic             Coordinates (Angstroms)
 Number     Number       Type             X           Y           Z
 ---------------------------------------------------------------------
      1          6           0        0.728047    0.619428    0.041275
      2          6           0        1.376360   -0.514945   -0.007512
      3          1           0        1.197336    1.578131    0.118067
      4          1           0        2.446949   -0.534891    0.012546
      5          1           0        0.853066   -1.447470   -0.064571
      6          8           0       -0.678919    0.674641   -0.015529
      7          8           0       -1.170101    0.352190    1.340203
      8          1           0       -1.992281    0.872098    1.336129
 ---------------------------------------------------------------------

 Alpha  occ. eigenvalues --  -20.52088 -20.51469 -11.23478 -11.17533  -1.45857
 Alpha  occ. eigenvalues --   -1.22808  -1.03020  -0.79002  -0.70084  -0.66237
 Alpha  occ. eigenvalues --   -0.64516  -0.58236  -0.54994  -0.50378  -0.43875
 Alpha  occ. eigenvalues --   -0.38259
 Alpha virt. eigenvalues --    0.15534   0.27337   0.29390   0.30738   0.32190
 Alpha virt. eigenvalues --    0.36732   0.49676   0.56895   0.88901   0.97676
 Alpha virt. eigenvalues --    0.98907   1.07163   1.10503   1.12691   1.23330

 Mulliken charges:
               1
     1  C    0.134156
     2  C   -0.447211
     3  H    0.233529
     4  H    0.225818
     5  H    0.250379
     6  O   -0.419065
     7  O   -0.390357
     8  H    0.412752
 Sum of Mulliken charges =   0.00000

 Dipole moment (field-independent basis, Debye):
    X=              0.3321    Y=              0.7559    Z=              0.3138  Tot=              0.8833
 Quadrupole moment (field-independent basis, Debye-Ang):
   XX=            -17.1653   YY=            -20.8349   ZZ=            -25.6170
   XY=             -1.8711   XZ=             -2.4691   YZ=              1.9222

 Normal termination of Gaussian 09 at Fri Apr 12 16:45:51 2019.
