 Gaussian 09, Revision D.01,
 Gaussian 09:  AS64L-G09RevD.01 24-Apr-2013

 --------------------------------------------------------------------
 #p hf 3-21g scf=tight NoSymmetry guess=read opt=(tight,modredundant)
 --------------------------------------------------------------------

 -----------------------------------
 Geometry optimization at the 2D-PES
 -----------------------------------
 Symbolic Z-matrix:
 Charge =  0 Multiplicity = 1

 SCF Done:  E(RHF) =  -226.390469931     A.U. after   13 cycles
 SCF Done:  E(RHF) =  -226.390485627     A.U. after   12 cycles
 SCF Done:  E(RHF) =  -226.390496335     A.U. after   11 cycles
 SCF Done:  E(RHF) =  -226.390496438     A.U. after    9 cycles
 SCF Done:  E(RHF) =  -226.390496451     A.U. after    8 cycles
 SCF Done:  E(RHF) =  -226.390496452     A.U. after    7 cycles
 Optimization completed.
    -- Stationary point found.

                          Input orientation:
 ---------------------------------------------------------------------
 Center     Atomic      Atomic             Coordinates (Angstroms)
 Number     Number       Type             X           Y           Z
 ---------------------------------------------------------------------
      1          6           0        0.744353    0.634585    0.057886
      2          6           0        1.375859   -0.509351    0.001684
      3          1           0        1.227428    1.588907    0.107294
      4          1           0        2.445350   -0.542478   -0.028362
      5          1           0        0.836864   -1.433918   -0.028177
      6          8           0       -0.658158    0.683891   -0.014232
      7          8           0       -1.131065    1.691661    0.938414
      8          1           0       -0.983155    2.521164    0.448195
 ---------------------------------------------------------------------

 Alpha  occ. eigenvalues --  -20.53689 -20.52777 -11.24734 -11.17535  -1.47783
 Alpha  occ. eigenvalues --   -1.23911  -1.03528  -0.80658  -0.70312  -0.68673
 Alpha  occ. eigenvalues --   -0.64843  -0.56624  -0.55853  -0.50866  -0.48419
 Alpha  occ. eigenvalues --   -0.37318
 Alpha virt. eigenvalues --    0.17187   0.23993   0.26117   0.31355   0.33617
 Alpha virt. eigenvalues --    0.35383   0.49569   0.56758   0.89205   0.96647
 Alpha virt. eigenvalues --    0.98991   1.06360   1.10076   1.11202   1.24736

 Mulliken charges:
               1
     1  C    0.142303
     2  C   -0.482055
     3  H    0.227500
     4  H    0.228222
     5  H    0.249548
     6  O   -0.394309
     7  O   -0.373218
     8  H    0.402009
 Sum of Mulliken charges =   0.00000

 Dipole moment (field-independent basis, Debye):
    X=              2.1579    Y=              1.6943    Z=             -0.8093  Tot=              2.8604
 Quadrupole moment (field-independent basis, Debye-Ang):
   XX=            -23.7139   YY=            -14.4779   ZZ=            -27.1694
   XY=             -0.1606   XZ=              1.1577   YZ=             -0.7192

 Normal termination of Gaussian 09 at Fri Apr 12 16:03:44 2019.
