 Gaussian 09, Revision D.01,
 Gaussian 09:  AS64L-G09RevD.01 24-Apr-2013

 --------------------------------------------------------------------
 #p hf 3-21g scf=tight NoSymmetry guess=read opt=(tight,modredundant)
 --------------------------------------------------------------------

 -----------------------------------
 Geometry optimization at the 2D-PES
 -----------------------------------
 Symbolic Z-matrix:
 Charge =  0 Multiplicity = 1

 SCF Done:  E(RHF) =  -226.394058738     A.U. after   13 cycles
 SCF Done:  E(RHF) =  -226.394064189     A.U. after   11 cycles
 SCF Done:  E(RHF) =  -226.394066564     A.U. after   10 cycles
 SCF Done:  E(RHF) =  -226.394066617     A.U. after    8 cycles
 SCF Done:  E(RHF) =  -226.394066623     A.U. after    7 cycles
 SCF Done:  E(RHF) =  -226.394066624     A.U. after    6 cycles
 Optimization completed.
    -- Stationary point found.

                          Input orientation:
 ---------------------------------------------------------------------
 Center     Atomic      Atomic             Coordinates (Angstroms)
 Number     Number       Type             X           Y           Z
 ---------------------------------------------------------------------
      1          6           0        0.722545    0.636098    0.024406
      2          6           0        1.368377   -0.501135   -0.025660
      3          1           0        1.181735    1.600229    0.056323
      4          1           0        2.438298   -0.524203    0.008208
      5          1           0        0.844471   -1.434358   -0.072453
      6          8           0       -0.684875    0.662227    0.054014
      7          8           0       -1.100062    1.416391   -1.139313
      8          1           0       -1.487665    0.701104   -1.673036
 ---------------------------------------------------------------------

 Alpha  occ. eigenvalues --  -20.53037 -20.52109 -11.24220 -11.17840  -1.47030
 Alpha  occ. eigenvalues --   -1.23391  -1.03484  -0.79729  -0.71568  -0.66156
 Alpha  occ. eigenvalues --   -0.63015  -0.60930  -0.55834  -0.48302  -0.46918
 Alpha  occ. eigenvalues --   -0.38399
 Alpha virt. eigenvalues --    0.16287   0.25818   0.28111   0.31046   0.32363
 Alpha virt. eigenvalues --    0.35854   0.49105   0.56620   0.89113   0.96698
 Alpha virt. eigenvalues --    0.98790   1.06785   1.10037   1.12308   1.22832

 Mulliken charges:
               1
     1  C    0.141590
     2  C   -0.477598
     3  H    0.249048
     4  H    0.229771
     5  H    0.238761
     6  O   -0.404859
     7  O   -0.387795
     8  H    0.411081
 Sum of Mulliken charges =   0.00000

 Dipole moment (field-independent basis, Debye):
    X=              1.1474    Y=             -1.4682    Z=             -1.3172  Tot=              2.2819
 Quadrupole moment (field-independent basis, Debye-Ang):
   XX=            -20.9073   YY=            -25.1447   ZZ=            -22.3533
   XY=              2.4283   XZ=              3.0876   YZ=              1.0590

 Normal termination of Gaussian 09 at Fri Apr 12 15:14:13 2019.
