 Gaussian 09, Revision D.01,
 Gaussian 09:  AS64L-G09RevD.01 24-Apr-2013

 --------------------------------------------------------------------
 #p hf 3-21g scf=tight NoSymmetry guess=read opt=(tight,modredundant)
 --------------------------------------------------------------------

 -----------------------------------
 Geometry optimization at the 2D-PES
 -----------------------------------
 Symbolic Z-matrix:
 Charge =  0 Multiplicity = 1

 SCF Done:  E(RHF) =  -226.390848037     A.U. after   12 cycles
 SCF Done:  E(RHF) =  -226.390870296     A.U. after   13 cycles
 SCF Done:  E(RHF) =  -226.390925322     A.U. after   12 cycles
 SCF Done:  E(RHF) =  -226.390926030     A.U. after   10 cycles
 SCF Done:  E(RHF) =  -226.390926141     A.U. after    9 cycles
 SCF Done:  E(RHF) =  -226.390926147     A.U. after    8 cycles
 SCF Done:  E(RHF) =  -226.390926148     A.U. after    6 cycles
 Optimization completed.
    -- Stationary point found.

                          Input orientation:
 ---------------------------------------------------------------------
 Center     Atomic      Atomic             Coordinates (Angstroms)
 Number     Number       Type             X           Y           Z
 ---------------------------------------------------------------------
      1          6           0        0.742014    0.571700    0.022011
      2          6           0        1.437969   -0.537229   -0.044624
      3          1           0        1.172696    1.548918    0.086674
      4          1           0        2.506624   -0.494907   -0.027567
      5          1           0        0.981320   -1.497271   -0.159926
      6          8           0       -0.645945    0.698325    0.038536
      7          8           0       -1.307440   -0.590341    0.206455
      8          1           0       -0.845615   -0.976073    0.976305
 ---------------------------------------------------------------------

 Alpha  occ. eigenvalues --  -20.54770 -20.53498 -11.25863 -11.17657  -1.48927
 Alpha  occ. eigenvalues --   -1.24626  -1.04748  -0.81025  -0.72111  -0.68773
 Alpha  occ. eigenvalues --   -0.64955  -0.57170  -0.55909  -0.53197  -0.48834
 Alpha  occ. eigenvalues --   -0.37342
 Alpha virt. eigenvalues --    0.18157   0.22172   0.27876   0.28810   0.32644
 Alpha virt. eigenvalues --    0.36679   0.49328   0.58012   0.87924   0.96286
 Alpha virt. eigenvalues --    1.00230   1.05644   1.08692   1.11062   1.24278

 Mulliken charges:
               1
     1  C    0.138001
     2  C   -0.532562
     3  H    0.269214
     4  H    0.232916
     5  H    0.235843
     6  O   -0.388761
     7  O   -0.362526
     8  H    0.407875
 Sum of Mulliken charges =   0.00000

 Dipole moment (field-independent basis, Debye):
    X=              2.5355    Y=             -0.7831    Z=              1.5503  Tot=              3.0733
 Quadrupole moment (field-independent basis, Debye-Ang):
   XX=            -25.2009   YY=            -21.0025   ZZ=            -23.7708
   XY=              1.8453   XZ=             -1.1452   YZ=             -1.5481

 Normal termination of Gaussian 09 at Fri Apr 12 17:45:34 2019.
