 Gaussian 09, Revision D.01,
 Gaussian 09:  AS64L-G09RevD.01 24-Apr-2013

 --------------------------------------------------------------------
 #p hf 3-21g scf=tight NoSymmetry guess=read opt=(tight,modredundant)
 --------------------------------------------------------------------

 -----------------------------------
 Geometry optimization at the 2D-PES
 -----------------------------------
 Symbolic Z-matrix:
 Charge =  0 Multiplicity = 1

 SCF Done:  E(RHF) =  -226.389849321     A.U. after   12 cycles
 SCF Done:  E(RHF) =  -226.389866210     A.U. after   13 cycles
 SCF Done:  E(RHF) =  -226.389883163     A.U. after   12 cycles
 SCF Done:  E(RHF) =  -226.389883298     A.U. after    9 cycles
 SCF Done:  E(RHF) =  -226.389883321     A.U. after    8 cycles
 SCF Done:  E(RHF) =  -226.389883322     A.U. after    7 cycles
 Optimization completed.
    -- Stationary point found.

                          Input orientation:
 ---------------------------------------------------------------------
 Center     Atomic      Atomic             Coordinates (Angstroms)
 Number     Number       Type             X           Y           Z
 ---------------------------------------------------------------------
      1          6           0        0.741891    0.636361    0.024134
      2          6           0        1.375496   -0.508174   -0.012692
      3          1           0        1.211891    1.593123    0.109137
      4          1           0        2.444878   -0.535031    0.020965
      5          1           0        0.846706   -1.437642   -0.069850
      6          8           0       -0.663044    0.681112    0.033204
      7          8           0       -1.087790    2.064646   -0.164596
      8          1           0       -0.848409    2.230614   -1.095185
 ---------------------------------------------------------------------

 Alpha  occ. eigenvalues --  -20.54081 -20.53338 -11.24949 -11.17253  -1.48391
 Alpha  occ. eigenvalues --   -1.24216  -1.03574  -0.80734  -0.72325  -0.66010
 Alpha  occ. eigenvalues --   -0.65572  -0.58041  -0.54826  -0.52677  -0.48572
 Alpha  occ. eigenvalues --   -0.36770
 Alpha virt. eigenvalues --    0.17684   0.22610   0.26750   0.31462   0.33394
 Alpha virt. eigenvalues --    0.35477   0.49445   0.56948   0.89352   0.96541
 Alpha virt. eigenvalues --    0.99213   1.06091   1.10017   1.10801   1.24983

 Mulliken charges:
               1
     1  C    0.126407
     2  C   -0.499826
     3  H    0.253522
     4  H    0.229610
     5  H    0.244875
     6  O   -0.389738
     7  O   -0.369400
     8  H    0.404550
 Sum of Mulliken charges =   0.00000

 Dipole moment (field-independent basis, Debye):
    X=              2.2507    Y=              0.6105    Z=             -1.9259  Tot=              3.0245
 Quadrupole moment (field-independent basis, Debye-Ang):
   XX=            -24.1211   YY=            -20.2053   ZZ=            -23.0993
   XY=              1.9051   XZ=              1.8534   YZ=             -4.3540

 Normal termination of Gaussian 09 at Fri Apr 12 15:35:33 2019.
