 Gaussian 09, Revision D.01,
 Gaussian 09:  AS64L-G09RevD.01 24-Apr-2013

 --------------------------------------------------------------------
 #p hf 3-21g scf=tight NoSymmetry guess=read opt=(tight,modredundant)
 --------------------------------------------------------------------

 -----------------------------------
 Geometry optimization at the 2D-PES
 -----------------------------------
 Symbolic Z-matrix:
 Charge =  0 Multiplicity = 1

 SCF Done:  E(RHF) =  -226.396320231     A.U. after   13 cycles
 SCF Done:  E(RHF) =  -226.396320618     A.U. after    9 cycles
 SCF Done:  E(RHF) =  -226.396320811     A.U. after    8 cycles
 SCF Done:  E(RHF) =  -226.396320820     A.U. after    7 cycles
 SCF Done:  E(RHF) =  -226.396320821     A.U. after    5 cycles
 Optimization completed.
    -- Stationary point found.

                          Input orientation:
 ---------------------------------------------------------------------
 Center     Atomic      Atomic             Coordinates (Angstroms)
 Number     Number       Type             X           Y           Z
 ---------------------------------------------------------------------
      1          6           0        0.731648    0.581149    0.057643
      2          6           0        1.407340   -0.535237   -0.036540
      3          1           0        1.176021    1.554439    0.090497
      4          1           0        2.477372   -0.511622   -0.049300
      5          1           0        0.919630   -1.485591   -0.065702
      6          8           0       -0.658406    0.710993    0.042215
      7          8           0       -1.248579   -0.505949    0.611640
      8          1           0       -2.187347   -0.267045    0.532753
 ---------------------------------------------------------------------

 Alpha  occ. eigenvalues --  -20.53349 -20.52430 -11.23975 -11.16000  -1.47296
 Alpha  occ. eigenvalues --   -1.23770  -1.02705  -0.78920  -0.71548  -0.65041
 Alpha  occ. eigenvalues --   -0.64575  -0.60563  -0.53730  -0.51164  -0.47205
 Alpha  occ. eigenvalues --   -0.35735
 Alpha virt. eigenvalues --    0.18456   0.24518   0.28858   0.30592   0.33786
 Alpha virt. eigenvalues --    0.37391   0.50316   0.58598   0.89335   0.97614
 Alpha virt. eigenvalues --    1.00431   1.07524   1.10755   1.12651   1.24082

 Mulliken charges:
               1
     1  C    0.152796
     2  C   -0.493214
     3  H    0.253831
     4  H    0.219793
     5  H    0.252761
     6  O   -0.423423
     7  O   -0.384876
     8  H    0.422332
 Sum of Mulliken charges =   0.00000

 Dipole moment (field-independent basis, Debye):
    X=             -0.3320    Y=              0.2307    Z=              0.0017  Tot=              0.4043
 Quadrupole moment (field-independent basis, Debye-Ang):
   XX=            -15.8557   YY=            -22.7611   ZZ=            -25.9623
   XY=              1.5142   XZ=             -0.9054   YZ=              0.5782

 Normal termination of Gaussian 09 at Fri Apr 12 17:27:55 2019.
