 Gaussian 09, Revision D.01,
 Gaussian 09:  AS64L-G09RevD.01 24-Apr-2013

 --------------------------------------------------------------------
 #p hf 3-21g scf=tight NoSymmetry guess=read opt=(tight,modredundant)
 --------------------------------------------------------------------

 -----------------------------------
 Geometry optimization at the 2D-PES
 -----------------------------------
 Symbolic Z-matrix:
 Charge =  0 Multiplicity = 1

 SCF Done:  E(RHF) =  -226.395296042     A.U. after   13 cycles
 SCF Done:  E(RHF) =  -226.395303082     A.U. after   11 cycles
 SCF Done:  E(RHF) =  -226.395308904     A.U. after   10 cycles
 SCF Done:  E(RHF) =  -226.395308968     A.U. after    8 cycles
 SCF Done:  E(RHF) =  -226.395308972     A.U. after    7 cycles
 Optimization completed.
    -- Stationary point found.

                          Input orientation:
 ---------------------------------------------------------------------
 Center     Atomic      Atomic             Coordinates (Angstroms)
 Number     Number       Type             X           Y           Z
 ---------------------------------------------------------------------
      1          6           0        0.728552    0.636409    0.030037
      2          6           0        1.369604   -0.504305   -0.014182
      3          1           0        1.185482    1.599289    0.093620
      4          1           0        2.439185   -0.522235    0.016716
      5          1           0        0.849566   -1.438657   -0.072248
      6          8           0       -0.673449    0.673885    0.033914
      7          8           0       -1.067147    2.069668   -0.155569
      8          1           0       -1.580361    1.997866   -0.978386
 ---------------------------------------------------------------------

 Alpha  occ. eigenvalues --  -20.53796 -20.53026 -11.24387 -11.16451  -1.48094
 Alpha  occ. eigenvalues --   -1.24111  -1.02827  -0.79865  -0.71664  -0.66667
 Alpha  occ. eigenvalues --   -0.64489  -0.58978  -0.55178  -0.50782  -0.48789
 Alpha  occ. eigenvalues --   -0.36056
 Alpha virt. eigenvalues --    0.19199   0.22504   0.27541   0.31956   0.33995
 Alpha virt. eigenvalues --    0.35891   0.49751   0.57665   0.90312   0.96938
 Alpha virt. eigenvalues --    1.00318   1.06321   1.10867   1.12606   1.22196

 Mulliken charges:
               1
     1  C    0.156449
     2  C   -0.509954
     3  H    0.263355
     4  H    0.226788
     5  H    0.237833
     6  O   -0.410395
     7  O   -0.381908
     8  H    0.417832
 Sum of Mulliken charges =   0.00000

 Dipole moment (field-independent basis, Debye):
    X=              0.6235    Y=              0.3129    Z=             -1.7898  Tot=              1.9210
 Quadrupole moment (field-independent basis, Debye-Ang):
   XX=            -20.2470   YY=            -22.1837   ZZ=            -23.5823
   XY=             -0.7901   XZ=              3.4142   YZ=             -3.4521

 Normal termination of Gaussian 09 at Fri Apr 12 15:36:40 2019.
