 Gaussian 09, Revision D.01,
 Gaussian 09:  AS64L-G09RevD.01 24-Apr-2013

 --------------------------------------------------------------------
 #p hf 3-21g scf=tight NoSymmetry guess=read opt=(tight,modredundant)
 --------------------------------------------------------------------

 -----------------------------------
 Geometry optimization at the 2D-PES
 -----------------------------------
 Symbolic Z-matrix:
 Charge =  0 Multiplicity = 1

 SCF Done:  E(RHF) =  -226.386408581     A.U. after   12 cycles
 SCF Done:  E(RHF) =  -226.386430105     A.U. after   12 cycles
 SCF Done:  E(RHF) =  -226.386449994     A.U. after   12 cycles
 SCF Done:  E(RHF) =  -226.386450078     A.U. after    9 cycles
 SCF Done:  E(RHF) =  -226.386450097     A.U. after    8 cycles
 SCF Done:  E(RHF) =  -226.386450099     A.U. after    6 cycles
 Optimization completed.
    -- Stationary point found.

                          Input orientation:
 ---------------------------------------------------------------------
 Center     Atomic      Atomic             Coordinates (Angstroms)
 Number     Number       Type             X           Y           Z
 ---------------------------------------------------------------------
      1          6           0        0.742642    0.585046    0.062094
      2          6           0        1.426268   -0.527909   -0.030141
      3          1           0        1.197990    1.552590    0.093028
      4          1           0        2.495856   -0.498701   -0.047508
      5          1           0        0.970775   -1.496962   -0.072619
      6          8           0       -0.658718    0.697107    0.039878
      7          8           0       -1.286926   -0.229283    0.982893
      8          1           0       -1.127710   -1.097734    0.574533
 ---------------------------------------------------------------------

 Alpha  occ. eigenvalues --  -20.53561 -20.52884 -11.25223 -11.18396  -1.47660
 Alpha  occ. eigenvalues --   -1.23903  -1.04673  -0.80365  -0.72342  -0.67108
 Alpha  occ. eigenvalues --   -0.65726  -0.58205  -0.55234  -0.50810  -0.48166
 Alpha  occ. eigenvalues --   -0.38044
 Alpha virt. eigenvalues --    0.15653   0.22479   0.28097   0.28779   0.34658
 Alpha virt. eigenvalues --    0.36733   0.50130   0.57382   0.88000   0.95981
 Alpha virt. eigenvalues --    0.98527   1.05793   1.08943   1.11082   1.25494

 Mulliken charges:
               1
     1  C    0.141165
     2  C   -0.492172
     3  H    0.259506
     4  H    0.237909
     5  H    0.211342
     6  O   -0.398752
     7  O   -0.365289
     8  H    0.406292
 Sum of Mulliken charges =   0.00000

 Dipole moment (field-independent basis, Debye):
    X=              2.1650    Y=             -1.8765    Z=             -0.6035  Tot=              2.9279
 Quadrupole moment (field-independent basis, Debye-Ang):
   XX=            -23.6315   YY=            -19.7743   ZZ=            -27.0180
   XY=              3.5887   XZ=              1.2117   YZ=             -0.5026

 Normal termination of Gaussian 09 at Fri Apr 12 17:13:36 2019.
