 Gaussian 09, Revision D.01,
 Gaussian 09:  AS64L-G09RevD.01 24-Apr-2013

 --------------------------------------------------------------------
 #p hf 3-21g scf=tight NoSymmetry guess=read opt=(tight,modredundant)
 --------------------------------------------------------------------

 -----------------------------------
 Geometry optimization at the 2D-PES
 -----------------------------------
 Symbolic Z-matrix:
 Charge =  0 Multiplicity = 1

 SCF Done:  E(RHF) =  -226.390448534     A.U. after   12 cycles
 SCF Done:  E(RHF) =  -226.390467842     A.U. after   12 cycles
 SCF Done:  E(RHF) =  -226.390482486     A.U. after   11 cycles
 SCF Done:  E(RHF) =  -226.390482630     A.U. after    9 cycles
 SCF Done:  E(RHF) =  -226.390482655     A.U. after    8 cycles
 SCF Done:  E(RHF) =  -226.390482656     A.U. after    7 cycles
 Optimization completed.
    -- Stationary point found.

                          Input orientation:
 ---------------------------------------------------------------------
 Center     Atomic      Atomic             Coordinates (Angstroms)
 Number     Number       Type             X           Y           Z
 ---------------------------------------------------------------------
      1          6           0        0.745228    0.635722    0.057168
      2          6           0        1.374649   -0.509649    0.000867
      3          1           0        1.228787    1.588870    0.111735
      4          1           0        2.444179   -0.542587   -0.023023
      5          1           0        0.836504   -1.434651   -0.031849
      6          8           0       -0.656869    0.687414   -0.012514
      7          8           0       -1.117588    1.847644    0.750556
      8          1           0       -0.966815    2.577168    0.121890
 ---------------------------------------------------------------------

 Alpha  occ. eigenvalues --  -20.53863 -20.53011 -11.24838 -11.17293  -1.48050
 Alpha  occ. eigenvalues --   -1.24066  -1.03468  -0.80671  -0.70784  -0.68321
 Alpha  occ. eigenvalues --   -0.65087  -0.56533  -0.55410  -0.51903  -0.48589
 Alpha  occ. eigenvalues --   -0.36941
 Alpha virt. eigenvalues --    0.17804   0.23244   0.26010   0.31494   0.33694
 Alpha virt. eigenvalues --    0.35414   0.49633   0.56911   0.89363   0.96631
 Alpha virt. eigenvalues --    0.99137   1.06338   1.10157   1.11194   1.24605

 Mulliken charges:
               1
     1  C    0.145316
     2  C   -0.490662
     3  H    0.232714
     4  H    0.228103
     5  H    0.247703
     6  O   -0.395154
     7  O   -0.371358
     8  H    0.403339
 Sum of Mulliken charges =   0.00000

 Dipole moment (field-independent basis, Debye):
    X=              2.1132    Y=              1.6085    Z=             -1.1109  Tot=              2.8787
 Quadrupole moment (field-independent basis, Debye-Ang):
   XX=            -23.7582   YY=            -14.9499   ZZ=            -26.8759
   XY=              0.1807   XZ=              1.4147   YZ=             -2.0446

 Normal termination of Gaussian 09 at Fri Apr 12 15:57:04 2019.
