 Gaussian 09, Revision D.01,
 Gaussian 09:  AS64L-G09RevD.01 24-Apr-2013

 --------------------------------------------------------------------
 #p hf 3-21g scf=tight NoSymmetry guess=read opt=(tight,modredundant)
 --------------------------------------------------------------------

 -----------------------------------
 Geometry optimization at the 2D-PES
 -----------------------------------
 Symbolic Z-matrix:
 Charge =  0 Multiplicity = 1

 SCF Done:  E(RHF) =  -226.394028347     A.U. after   13 cycles
 SCF Done:  E(RHF) =  -226.394033318     A.U. after   11 cycles
 SCF Done:  E(RHF) =  -226.394037135     A.U. after   10 cycles
 SCF Done:  E(RHF) =  -226.394037186     A.U. after    8 cycles
 SCF Done:  E(RHF) =  -226.394037192     A.U. after    7 cycles
 Optimization completed.
    -- Stationary point found.

                          Input orientation:
 ---------------------------------------------------------------------
 Center     Atomic      Atomic             Coordinates (Angstroms)
 Number     Number       Type             X           Y           Z
 ---------------------------------------------------------------------
      1          6           0        0.737197    0.588091    0.064442
      2          6           0        1.407389   -0.530848   -0.031485
      3          1           0        1.187329    1.559421    0.085359
      4          1           0        2.477694   -0.515665   -0.049449
      5          1           0        0.912691   -1.478773   -0.056224
      6          8           0       -0.660360    0.706924    0.042248
      7          8           0       -1.247782   -0.393973    0.813077
      8          1           0       -1.851695    0.111084    1.383549
 ---------------------------------------------------------------------

 Alpha  occ. eigenvalues --  -20.53107 -20.52298 -11.23919 -11.16496  -1.47116
 Alpha  occ. eigenvalues --   -1.23459  -1.02938  -0.79252  -0.71013  -0.65891
 Alpha  occ. eigenvalues --   -0.62529  -0.62006  -0.54530  -0.49443  -0.47163
 Alpha  occ. eigenvalues --   -0.36518
 Alpha virt. eigenvalues --    0.17499   0.24854   0.29093   0.30367   0.33286
 Alpha virt. eigenvalues --    0.37223   0.50127   0.58035   0.88940   0.97235
 Alpha virt. eigenvalues --    1.00324   1.07139   1.10617   1.12988   1.22928

 Mulliken charges:
               1
     1  C    0.138142
     2  C   -0.480782
     3  H    0.248765
     4  H    0.221595
     5  H    0.254184
     6  O   -0.416144
     7  O   -0.383831
     8  H    0.418071
 Sum of Mulliken charges =   0.00000

 Dipole moment (field-independent basis, Debye):
    X=              0.4995    Y=              0.7439    Z=              1.4399  Tot=              1.6959
 Quadrupole moment (field-independent basis, Debye-Ang):
   XX=            -18.9439   YY=            -22.6616   ZZ=            -22.8350
   XY=             -0.1292   XZ=             -3.6114   YZ=              1.3144

 Normal termination of Gaussian 09 at Fri Apr 12 17:18:47 2019.
