 Gaussian 09, Revision D.01,
 Gaussian 09:  AS64L-G09RevD.01 24-Apr-2013

 --------------------------------------------------------------------
 #p hf 3-21g scf=tight NoSymmetry guess=read opt=(tight,modredundant)
 --------------------------------------------------------------------

 -----------------------------------
 Geometry optimization at the 2D-PES
 -----------------------------------
 Symbolic Z-matrix:
 Charge =  0 Multiplicity = 1

 SCF Done:  E(RHF) =  -226.385743721     A.U. after   13 cycles
 SCF Done:  E(RHF) =  -226.385778008     A.U. after   13 cycles
 SCF Done:  E(RHF) =  -226.385805975     A.U. after   12 cycles
 SCF Done:  E(RHF) =  -226.385806189     A.U. after    9 cycles
 SCF Done:  E(RHF) =  -226.385806214     A.U. after    8 cycles
 SCF Done:  E(RHF) =  -226.385806218     A.U. after    7 cycles
 Optimization completed.
    -- Stationary point found.

                          Input orientation:
 ---------------------------------------------------------------------
 Center     Atomic      Atomic             Coordinates (Angstroms)
 Number     Number       Type             X           Y           Z
 ---------------------------------------------------------------------
      1          6           0        0.744652    0.573009    0.068898
      2          6           0        1.442067   -0.530869   -0.036034
      3          1           0        1.190579    1.545308    0.090265
      4          1           0        2.510430   -0.481442   -0.066513
      5          1           0        1.009610   -1.510386   -0.065367
      6          8           0       -0.650643    0.699354    0.054526
      7          8           0       -1.319635   -0.365829    0.798542
      8          1           0       -1.038657   -1.176521    0.340094
 ---------------------------------------------------------------------

 Alpha  occ. eigenvalues --  -20.54024 -20.53149 -11.25601 -11.18298  -1.48095
 Alpha  occ. eigenvalues --   -1.24303  -1.04860  -0.80672  -0.72693  -0.67501
 Alpha  occ. eigenvalues --   -0.65685  -0.58140  -0.54953  -0.52009  -0.48516
 Alpha  occ. eigenvalues --   -0.37775
 Alpha virt. eigenvalues --    0.16271   0.21988   0.27701   0.28279   0.35343
 Alpha virt. eigenvalues --    0.36766   0.49940   0.58344   0.88016   0.95788
 Alpha virt. eigenvalues --    0.99126   1.05698   1.08744   1.11016   1.25292

 Mulliken charges:
               1
     1  C    0.144537
     2  C   -0.505364
     3  H    0.264455
     4  H    0.238945
     5  H    0.207846
     6  O   -0.395902
     7  O   -0.363170
     8  H    0.408653
 Sum of Mulliken charges =   0.00000

 Dipole moment (field-independent basis, Debye):
    X=              2.3183    Y=             -1.6980    Z=             -0.7425  Tot=              2.9680
 Quadrupole moment (field-independent basis, Debye-Ang):
   XX=            -24.2390   YY=            -19.6098   ZZ=            -26.8185
   XY=              3.2398   XZ=              1.3944   YZ=              0.0886

 Normal termination of Gaussian 09 at Fri Apr 12 17:14:30 2019.
