 Gaussian 09, Revision D.01,
 Gaussian 09:  AS64L-G09RevD.01 24-Apr-2013

 --------------------------------------------------------------------
 #p hf 3-21g scf=tight NoSymmetry guess=read opt=(tight,modredundant)
 --------------------------------------------------------------------

 -----------------------------------
 Geometry optimization at the 2D-PES
 -----------------------------------
 Symbolic Z-matrix:
 Charge =  0 Multiplicity = 1

 SCF Done:  E(RHF) =  -226.394651036     A.U. after   13 cycles
 SCF Done:  E(RHF) =  -226.394658595     A.U. after   11 cycles
 SCF Done:  E(RHF) =  -226.394664918     A.U. after   10 cycles
 SCF Done:  E(RHF) =  -226.394664980     A.U. after    8 cycles
 SCF Done:  E(RHF) =  -226.394664983     A.U. after    7 cycles
 Optimization completed.
    -- Stationary point found.

                          Input orientation:
 ---------------------------------------------------------------------
 Center     Atomic      Atomic             Coordinates (Angstroms)
 Number     Number       Type             X           Y           Z
 ---------------------------------------------------------------------
      1          6           0        0.732085    0.636410    0.037074
      2          6           0        1.370338   -0.505444   -0.012640
      3          1           0        1.192066    1.597833    0.102837
      4          1           0        2.440258   -0.524882   -0.000285
      5          1           0        0.847778   -1.438837   -0.062031
      6          8           0       -0.670852    0.677841    0.028149
      7          8           0       -1.070097    2.081509    0.092259
      8          1           0       -1.427263    2.210119   -0.803525
 ---------------------------------------------------------------------

 Alpha  occ. eigenvalues --  -20.53894 -20.53197 -11.24470 -11.16482  -1.48270
 Alpha  occ. eigenvalues --   -1.24153  -1.02908  -0.79962  -0.71728  -0.66944
 Alpha  occ. eigenvalues --   -0.65051  -0.57693  -0.55035  -0.51884  -0.48743
 Alpha  occ. eigenvalues --   -0.36063
 Alpha virt. eigenvalues --    0.19323   0.22114   0.27412   0.31950   0.33913
 Alpha virt. eigenvalues --    0.35806   0.49650   0.57616   0.90210   0.96843
 Alpha virt. eigenvalues --    1.00201   1.06144   1.10799   1.12209   1.22866

 Mulliken charges:
               1
     1  C    0.152362
     2  C   -0.509561
     3  H    0.260713
     4  H    0.226873
     5  H    0.239410
     6  O   -0.407006
     7  O   -0.377993
     8  H    0.415202
 Sum of Mulliken charges =   0.00000

 Dipole moment (field-independent basis, Debye):
    X=              0.9513    Y=              0.7267    Z=             -1.8709  Tot=              2.2211
 Quadrupole moment (field-independent basis, Debye-Ang):
   XX=            -21.3005   YY=            -20.3338   ZZ=            -24.2322
   XY=             -0.7811   XZ=              2.9791   YZ=             -4.1298

 Normal termination of Gaussian 09 at Fri Apr 12 15:39:35 2019.
