 Gaussian 09, Revision D.01,
 Gaussian 09:  AS64L-G09RevD.01 24-Apr-2013

 --------------------------------------------------------------------
 #p hf 3-21g scf=tight NoSymmetry guess=read opt=(tight,modredundant)
 --------------------------------------------------------------------

 -----------------------------------
 Geometry optimization at the 2D-PES
 -----------------------------------
 Symbolic Z-matrix:
 Charge =  0 Multiplicity = 1

 SCF Done:  E(RHF) =  -226.392552541     A.U. after   13 cycles
 SCF Done:  E(RHF) =  -226.392558589     A.U. after   11 cycles
 SCF Done:  E(RHF) =  -226.392562220     A.U. after   10 cycles
 SCF Done:  E(RHF) =  -226.392562284     A.U. after    8 cycles
 SCF Done:  E(RHF) =  -226.392562290     A.U. after    6 cycles
 Optimization completed.
    -- Stationary point found.

                          Input orientation:
 ---------------------------------------------------------------------
 Center     Atomic      Atomic             Coordinates (Angstroms)
 Number     Number       Type             X           Y           Z
 ---------------------------------------------------------------------
      1          6           0        0.727962    0.623347    0.039297
      2          6           0        1.372182   -0.513583   -0.002566
      3          1           0        1.198212    1.580913    0.123076
      4          1           0        2.442695   -0.538543    0.016292
      5          1           0        0.843666   -1.442979   -0.062365
      6          8           0       -0.679411    0.670162   -0.023865
      7          8           0       -1.159413    0.594270    1.370587
      8          1           0       -1.887922    1.237296    1.326611
 ---------------------------------------------------------------------

 Alpha  occ. eigenvalues --  -20.52198 -20.51505 -11.23530 -11.17628  -1.45989
 Alpha  occ. eigenvalues --   -1.22851  -1.03060  -0.79148  -0.69917  -0.66710
 Alpha  occ. eigenvalues --   -0.64631  -0.57797  -0.55154  -0.50186  -0.44150
 Alpha  occ. eigenvalues --   -0.38426
 Alpha virt. eigenvalues --    0.15552   0.27370   0.29185   0.30896   0.32186
 Alpha virt. eigenvalues --    0.36474   0.49430   0.56834   0.88893   0.97618
 Alpha virt. eigenvalues --    0.98837   1.07192   1.10482   1.12882   1.22973

 Mulliken charges:
               1
     1  C    0.134555
     2  C   -0.447772
     3  H    0.230957
     4  H    0.226162
     5  H    0.250561
     6  O   -0.415527
     7  O   -0.390382
     8  H    0.411445
 Sum of Mulliken charges =   0.00000

 Dipole moment (field-independent basis, Debye):
    X=              0.5357    Y=              1.0506    Z=              0.2207  Tot=              1.1997
 Quadrupole moment (field-independent basis, Debye-Ang):
   XX=            -18.0517   YY=            -19.5866   ZZ=            -25.8786
   XY=             -2.6367   XZ=             -2.0679   YZ=              2.2266

 Normal termination of Gaussian 09 at Fri Apr 12 16:38:57 2019.
