 Gaussian 09, Revision D.01,
 Gaussian 09:  AS64L-G09RevD.01 24-Apr-2013

 --------------------------------------------------------------------
 #p hf 3-21g scf=tight NoSymmetry guess=read opt=(tight,modredundant)
 --------------------------------------------------------------------

 -----------------------------------
 Geometry optimization at the 2D-PES
 -----------------------------------
 Symbolic Z-matrix:
 Charge =  0 Multiplicity = 1

 SCF Done:  E(RHF) =  -226.390051962     A.U. after   13 cycles
 SCF Done:  E(RHF) =  -226.390066375     A.U. after   12 cycles
 SCF Done:  E(RHF) =  -226.390074735     A.U. after   10 cycles
 SCF Done:  E(RHF) =  -226.390074829     A.U. after    9 cycles
 SCF Done:  E(RHF) =  -226.390074840     A.U. after    7 cycles
 SCF Done:  E(RHF) =  -226.390074842     A.U. after    7 cycles
 Optimization completed.
    -- Stationary point found.

                          Input orientation:
 ---------------------------------------------------------------------
 Center     Atomic      Atomic             Coordinates (Angstroms)
 Number     Number       Type             X           Y           Z
 ---------------------------------------------------------------------
      1          6           0        0.741163    0.630403    0.052133
      2          6           0        1.377403   -0.510723    0.002540
      3          1           0        1.221457    1.586640    0.108543
      4          1           0        2.447479   -0.543348   -0.015870
      5          1           0        0.838795   -1.435167   -0.037203
      6          8           0       -0.664366    0.676726   -0.019223
      7          8           0       -1.155444    1.300507    1.216761
      8          1           0       -1.020251    2.249082    1.036983
 ---------------------------------------------------------------------

 Alpha  occ. eigenvalues --  -20.53235 -20.52334 -11.24437 -11.17985  -1.47189
 Alpha  occ. eigenvalues --   -1.23509  -1.03634  -0.80552  -0.69463  -0.69158
 Alpha  occ. eigenvalues --   -0.64135  -0.57079  -0.56457  -0.48917  -0.47932
 Alpha  occ. eigenvalues --   -0.38156
 Alpha virt. eigenvalues --    0.16013   0.25148   0.26946   0.31037   0.33148
 Alpha virt. eigenvalues --    0.35454   0.49388   0.56469   0.88772   0.96732
 Alpha virt. eigenvalues --    0.98670   1.06331   1.09878   1.11201   1.25181

 Mulliken charges:
               1
     1  C    0.128312
     2  C   -0.462831
     3  H    0.222553
     4  H    0.228364
     5  H    0.252927
     6  O   -0.392737
     7  O   -0.376500
     8  H    0.399912
 Sum of Mulliken charges =   0.00000

 Dipole moment (field-independent basis, Debye):
    X=              2.2422    Y=              1.7227    Z=             -0.1483  Tot=              2.8315
 Quadrupole moment (field-independent basis, Debye-Ang):
   XX=            -23.5987   YY=            -14.8826   ZZ=            -26.5933
   XY=             -0.7244   XZ=              0.5865   YZ=              1.9042

 Normal termination of Gaussian 09 at Fri Apr 12 16:17:35 2019.
