 Gaussian 09, Revision D.01,
 Gaussian 09:  AS64L-G09RevD.01 24-Apr-2013

 --------------------------------------------------------------------
 #p hf 3-21g scf=tight NoSymmetry guess=read opt=(tight,modredundant)
 --------------------------------------------------------------------

 -----------------------------------
 Geometry optimization at the 2D-PES
 -----------------------------------
 Symbolic Z-matrix:
 Charge =  0 Multiplicity = 1

 SCF Done:  E(RHF) =  -226.386715069     A.U. after   13 cycles
 SCF Done:  E(RHF) =  -226.386742501     A.U. after   13 cycles
 SCF Done:  E(RHF) =  -226.386783061     A.U. after   12 cycles
 SCF Done:  E(RHF) =  -226.386783609     A.U. after    9 cycles
 SCF Done:  E(RHF) =  -226.386783713     A.U. after   10 cycles
 SCF Done:  E(RHF) =  -226.386783718     A.U. after    8 cycles
 SCF Done:  E(RHF) =  -226.386783719     A.U. after    6 cycles
 Optimization completed.
    -- Stationary point found.

                          Input orientation:
 ---------------------------------------------------------------------
 Center     Atomic      Atomic             Coordinates (Angstroms)
 Number     Number       Type             X           Y           Z
 ---------------------------------------------------------------------
      1          6           0        0.745758    0.581399    0.038322
      2          6           0        1.431216   -0.534587   -0.035210
      3          1           0        1.185084    1.556192    0.072509
      4          1           0        2.500631   -0.508205   -0.032353
      5          1           0        0.956087   -1.490253   -0.122995
      6          8           0       -0.646651    0.693082    0.041514
      7          8           0       -1.290911   -0.478720    0.640700
      8          1           0       -0.635438   -0.790379    1.294744
 ---------------------------------------------------------------------

 Alpha  occ. eigenvalues --  -20.54255 -20.53099 -11.25994 -11.18337  -1.48244
 Alpha  occ. eigenvalues --   -1.24368  -1.05103  -0.81228  -0.72281  -0.68484
 Alpha  occ. eigenvalues --   -0.63611  -0.58038  -0.56268  -0.53263  -0.47887
 Alpha  occ. eigenvalues --   -0.37748
 Alpha virt. eigenvalues --    0.16400   0.23369   0.27758   0.28841   0.31668
 Alpha virt. eigenvalues --    0.36664   0.49595   0.57014   0.87593   0.96176
 Alpha virt. eigenvalues --    1.00216   1.05046   1.08303   1.11091   1.23480

 Mulliken charges:
               1
     1  C    0.121681
     2  C   -0.522894
     3  H    0.267358
     4  H    0.235791
     5  H    0.242644
     6  O   -0.385657
     7  O   -0.364452
     8  H    0.405529
 Sum of Mulliken charges =   0.00000

 Dipole moment (field-independent basis, Debye):
    X=              3.0606    Y=             -0.6926    Z=              1.3739  Tot=              3.4256
 Quadrupole moment (field-independent basis, Debye-Ang):
   XX=            -25.5890   YY=            -21.3965   ZZ=            -23.0031
   XY=              1.3556   XZ=             -0.0497   YZ=             -1.3124

 Normal termination of Gaussian 09 at Fri Apr 12 17:23:16 2019.
