 Gaussian 09, Revision D.01,
 Gaussian 09:  AS64L-G09RevD.01 24-Apr-2013

 --------------------------------------------------------------------
 #p hf 3-21g scf=tight NoSymmetry guess=read opt=(tight,modredundant)
 --------------------------------------------------------------------

 -----------------------------------
 Geometry optimization at the 2D-PES
 -----------------------------------
 Symbolic Z-matrix:
 Charge =  0 Multiplicity = 1

 SCF Done:  E(RHF) =  -226.388720616     A.U. after   12 cycles
 SCF Done:  E(RHF) =  -226.388740001     A.U. after   12 cycles
 SCF Done:  E(RHF) =  -226.388752524     A.U. after   11 cycles
 SCF Done:  E(RHF) =  -226.388752667     A.U. after    9 cycles
 SCF Done:  E(RHF) =  -226.388752696     A.U. after    9 cycles
 SCF Done:  E(RHF) =  -226.388752698     A.U. after    7 cycles
 Optimization completed.
    -- Stationary point found.

                          Input orientation:
 ---------------------------------------------------------------------
 Center     Atomic      Atomic             Coordinates (Angstroms)
 Number     Number       Type             X           Y           Z
 ---------------------------------------------------------------------
      1          6           0        0.746077    0.631431    0.058444
      2          6           0        1.377513   -0.512310    0.003813
      3          1           0        1.233065    1.585141    0.106077
      4          1           0        2.447159   -0.547932   -0.023361
      5          1           0        0.835979   -1.435214   -0.030616
      6          8           0       -0.656965    0.684289   -0.018263
      7          8           0       -1.152453    1.508669    1.090349
      8          1           0       -0.863393    2.404902    0.836468
 ---------------------------------------------------------------------

 Alpha  occ. eigenvalues --  -20.53532 -20.52578 -11.24760 -11.17955  -1.47494
 Alpha  occ. eigenvalues --   -1.23778  -1.03756  -0.80912  -0.70077  -0.68845
 Alpha  occ. eigenvalues --   -0.64196  -0.56889  -0.56617  -0.50019  -0.48047
 Alpha  occ. eigenvalues --   -0.37859
 Alpha virt. eigenvalues --    0.16376   0.24444   0.26101   0.31050   0.33606
 Alpha virt. eigenvalues --    0.35307   0.49697   0.56460   0.88896   0.96486
 Alpha virt. eigenvalues --    0.98865   1.06102   1.09899   1.11016   1.25096

 Mulliken charges:
               1
     1  C    0.130593
     2  C   -0.470365
     3  H    0.221900
     4  H    0.228994
     5  H    0.252550
     6  O   -0.389576
     7  O   -0.372679
     8  H    0.398583
 Sum of Mulliken charges =   0.00000

 Dipole moment (field-independent basis, Debye):
    X=              2.5048    Y=              1.6608    Z=             -0.3150  Tot=              3.0218
 Quadrupole moment (field-independent basis, Debye-Ang):
   XX=            -24.1887   YY=            -14.6163   ZZ=            -26.7800
   XY=              0.2775   XZ=              0.9473   YZ=              1.0638

 Normal termination of Gaussian 09 at Fri Apr 12 16:08:54 2019.
