 Gaussian 09, Revision D.01,
 Gaussian 09:  AS64L-G09RevD.01 24-Apr-2013

 --------------------------------------------------------------------
 #p hf 3-21g scf=tight NoSymmetry guess=read opt=(tight,modredundant)
 --------------------------------------------------------------------

 -----------------------------------
 Geometry optimization at the 2D-PES
 -----------------------------------
 Symbolic Z-matrix:
 Charge =  0 Multiplicity = 1

 SCF Done:  E(RHF) =  -226.395815364     A.U. after   13 cycles
 SCF Done:  E(RHF) =  -226.395817388     A.U. after   11 cycles
 SCF Done:  E(RHF) =  -226.395819554     A.U. after   10 cycles
 SCF Done:  E(RHF) =  -226.395819584     A.U. after    8 cycles
 SCF Done:  E(RHF) =  -226.395819586     A.U. after    7 cycles
 Optimization completed.
    -- Stationary point found.

                          Input orientation:
 ---------------------------------------------------------------------
 Center     Atomic      Atomic             Coordinates (Angstroms)
 Number     Number       Type             X           Y           Z
 ---------------------------------------------------------------------
      1          6           0        0.719652    0.634641    0.031539
      2          6           0        1.367015   -0.502804   -0.013619
      3          1           0        1.174085    1.599345    0.088597
      4          1           0        2.436636   -0.514437    0.015305
      5          1           0        0.852469   -1.440022   -0.073198
      6          8           0       -0.678199    0.668180    0.036054
      7          8           0       -1.054920    2.073334   -0.153944
      8          1           0       -1.968057    1.951500   -0.462221
 ---------------------------------------------------------------------

 Alpha  occ. eigenvalues --  -20.53616 -20.52761 -11.24287 -11.16165  -1.47754
 Alpha  occ. eigenvalues --   -1.24129  -1.02553  -0.79842  -0.70689  -0.67025
 Alpha  occ. eigenvalues --   -0.63702  -0.60101  -0.55274  -0.50377  -0.48634
 Alpha  occ. eigenvalues --   -0.35550
 Alpha virt. eigenvalues --    0.19554   0.22690   0.27575   0.32209   0.34176
 Alpha virt. eigenvalues --    0.36055   0.50199   0.57846   0.90391   0.97380
 Alpha virt. eigenvalues --    1.00253   1.07065   1.11016   1.12440   1.22956

 Mulliken charges:
               1
     1  C    0.172701
     2  C   -0.512935
     3  H    0.265522
     4  H    0.225747
     5  H    0.235517
     6  O   -0.421300
     7  O   -0.389013
     8  H    0.423761
 Sum of Mulliken charges =   0.00000

 Dipole moment (field-independent basis, Debye):
    X=             -0.2581    Y=              0.2527    Z=             -0.6973  Tot=              0.7853
 Quadrupole moment (field-independent basis, Debye-Ang):
   XX=            -16.9866   YY=            -22.5759   ZZ=            -25.3661
   XY=             -2.3449   XZ=              1.9688   YZ=             -1.1548

 Normal termination of Gaussian 09 at Fri Apr 12 15:37:29 2019.
