 Gaussian 09, Revision D.01,
 Gaussian 09:  AS64L-G09RevD.01 24-Apr-2013

 --------------------------------------------------------------------
 #p hf 3-21g scf=tight NoSymmetry guess=read opt=(tight,modredundant)
 --------------------------------------------------------------------

 -----------------------------------
 Geometry optimization at the 2D-PES
 -----------------------------------
 Symbolic Z-matrix:
 Charge =  0 Multiplicity = 1

 SCF Done:  E(RHF) =  -226.391034691     A.U. after   13 cycles
 SCF Done:  E(RHF) =  -226.391045193     A.U. after   12 cycles
 SCF Done:  E(RHF) =  -226.391056631     A.U. after   11 cycles
 SCF Done:  E(RHF) =  -226.391056679     A.U. after    9 cycles
 SCF Done:  E(RHF) =  -226.391056684     A.U. after    8 cycles
 Optimization completed.
    -- Stationary point found.

                          Input orientation:
 ---------------------------------------------------------------------
 Center     Atomic      Atomic             Coordinates (Angstroms)
 Number     Number       Type             X           Y           Z
 ---------------------------------------------------------------------
      1          6           0        0.740432    0.636111    0.033722
      2          6           0        1.373924   -0.508138   -0.011912
      3          1           0        1.210807    1.592854    0.110793
      4          1           0        2.443741   -0.533547    0.001190
      5          1           0        0.845513   -1.438265   -0.060379
      6          8           0       -0.664485    0.682246    0.028892
      7          8           0       -1.083263    2.079260    0.086320
      8          1           0       -0.978928    2.362453   -0.840470
 ---------------------------------------------------------------------

 Alpha  occ. eigenvalues --  -20.54067 -20.53393 -11.24852 -11.16957  -1.48449
 Alpha  occ. eigenvalues --   -1.24217  -1.03370  -0.80540  -0.72063  -0.66715
 Alpha  occ. eigenvalues --   -0.65456  -0.57348  -0.54682  -0.52989  -0.48726
 Alpha  occ. eigenvalues --   -0.36499
 Alpha virt. eigenvalues --    0.18523   0.22060   0.26709   0.31650   0.33618
 Alpha virt. eigenvalues --    0.35527   0.49529   0.57152   0.89579   0.96606
 Alpha virt. eigenvalues --    0.99411   1.06092   1.10230   1.11093   1.24721

 Mulliken charges:
               1
     1  C    0.136655
     2  C   -0.503561
     3  H    0.252781
     4  H    0.228486
     5  H    0.243578
     6  O   -0.394662
     7  O   -0.369959
     8  H    0.406681
 Sum of Mulliken charges =   0.00000

 Dipole moment (field-independent basis, Debye):
    X=              1.9486    Y=              0.9192    Z=             -1.8861  Tot=              2.8634
 Quadrupole moment (field-independent basis, Debye-Ang):
   XX=            -23.6450   YY=            -18.9583   ZZ=            -24.1192
   XY=              1.0448   XZ=              2.1377   YZ=             -4.4870

 Normal termination of Gaussian 09 at Fri Apr 12 15:40:31 2019.
