 Gaussian 09, Revision D.01,
 Gaussian 09:  AS64L-G09RevD.01 24-Apr-2013

 --------------------------------------------------------------------
 #p hf 3-21g scf=tight NoSymmetry guess=read opt=(tight,modredundant)
 --------------------------------------------------------------------

 -----------------------------------
 Geometry optimization at the 2D-PES
 -----------------------------------
 Symbolic Z-matrix:
 Charge =  0 Multiplicity = 1

 SCF Done:  E(RHF) =  -226.383671137     A.U. after   12 cycles
 SCF Done:  E(RHF) =  -226.383682172     A.U. after   12 cycles
 SCF Done:  E(RHF) =  -226.383693659     A.U. after   11 cycles
 SCF Done:  E(RHF) =  -226.383693707     A.U. after    9 cycles
 SCF Done:  E(RHF) =  -226.383693710     A.U. after    8 cycles
 Optimization completed.
    -- Stationary point found.

                          Input orientation:
 ---------------------------------------------------------------------
 Center     Atomic      Atomic             Coordinates (Angstroms)
 Number     Number       Type             X           Y           Z
 ---------------------------------------------------------------------
      1          6           0        0.757000    0.627964    0.060174
      2          6           0        1.383182   -0.518792    0.003392
      3          1           0        1.254420    1.578835    0.087802
      4          1           0        2.452431   -0.559238   -0.032520
      5          1           0        0.836888   -1.439056   -0.026189
      6          8           0       -0.644028    0.691717   -0.015443
      7          8           0       -1.172908    1.513845    1.084527
      8          1           0       -0.543533    2.256066    1.153375
 ---------------------------------------------------------------------

 Alpha  occ. eigenvalues --  -20.53587 -20.52523 -11.25190 -11.18475  -1.47295
 Alpha  occ. eigenvalues --   -1.23958  -1.04215  -0.81638  -0.70814  -0.68364
 Alpha  occ. eigenvalues --   -0.62803  -0.58106  -0.56740  -0.51319  -0.47083
 Alpha  occ. eigenvalues --   -0.38087
 Alpha virt. eigenvalues --    0.15540   0.24628   0.25399   0.30595   0.33624
 Alpha virt. eigenvalues --    0.35175   0.50143   0.56024   0.88523   0.95995
 Alpha virt. eigenvalues --    0.99153   1.05727   1.09738   1.10857   1.24393

 Mulliken charges:
               1
     1  C    0.109531
     2  C   -0.464218
     3  H    0.221820
     4  H    0.231050
     5  H    0.255809
     6  O   -0.380328
     7  O   -0.369496
     8  H    0.395832
 Sum of Mulliken charges =   0.00000

 Dipole moment (field-independent basis, Debye):
    X=              3.2128    Y=              1.2337    Z=              0.3025  Tot=              3.4548
 Quadrupole moment (field-independent basis, Debye-Ang):
   XX=            -25.0494   YY=            -16.2716   ZZ=            -25.4292
   XY=              2.1164   XZ=              1.1411   YZ=              2.3171

 Normal termination of Gaussian 09 at Fri Apr 12 16:08:06 2019.
