 Gaussian 09, Revision D.01,
 Gaussian 09:  AS64L-G09RevD.01 24-Apr-2013

 --------------------------------------------------------------------
 #p hf 3-21g scf=tight NoSymmetry guess=read opt=(tight,modredundant)
 --------------------------------------------------------------------

 -----------------------------------
 Geometry optimization at the 2D-PES
 -----------------------------------
 Symbolic Z-matrix:
 Charge =  0 Multiplicity = 1

 SCF Done:  E(RHF) =  -226.381429814     A.U. after   13 cycles
 SCF Done:  E(RHF) =  -226.381456450     A.U. after   12 cycles
 SCF Done:  E(RHF) =  -226.381457423     A.U. after   10 cycles
 SCF Done:  E(RHF) =  -226.381457838     A.U. after    9 cycles
 SCF Done:  E(RHF) =  -226.381457849     A.U. after    8 cycles
 SCF Done:  E(RHF) =  -226.381457851     A.U. after    7 cycles
 Optimization completed.
    -- Stationary point found.

                          Input orientation:
 ---------------------------------------------------------------------
 Center     Atomic      Atomic             Coordinates (Angstroms)
 Number     Number       Type             X           Y           Z
 ---------------------------------------------------------------------
      1          6           0        0.741024    0.581278    0.011264
      2          6           0        1.444337   -0.525288    0.018489
      3          1           0        1.182270    1.552894    0.086953
      4          1           0        2.511499   -0.474480    0.074142
      5          1           0        1.016806   -1.508241   -0.013761
      6          8           0       -0.652761    0.696309   -0.026001
      7          8           0       -1.308372   -0.267158   -0.915765
      8          1           0       -0.729710   -1.048002   -0.908449
 ---------------------------------------------------------------------

 Alpha  occ. eigenvalues --  -20.54000 -20.53003 -11.26174 -11.18815  -1.47859
 Alpha  occ. eigenvalues --   -1.24496  -1.05404  -0.81169  -0.73302  -0.67787
 Alpha  occ. eigenvalues --   -0.63988  -0.59026  -0.55058  -0.53217  -0.47991
 Alpha  occ. eigenvalues --   -0.37923
 Alpha virt. eigenvalues --    0.15724   0.21981   0.27269   0.28027   0.34986
 Alpha virt. eigenvalues --    0.36787   0.49942   0.58435   0.87731   0.95315
 Alpha virt. eigenvalues --    1.00602   1.05265   1.08086   1.10837   1.24133

 Mulliken charges:
               1
     1  C    0.140060
     2  C   -0.519288
     3  H    0.267506
     4  H    0.243005
     5  H    0.213349
     6  O   -0.391681
     7  O   -0.363087
     8  H    0.410136
 Sum of Mulliken charges =   0.00000

 Dipole moment (field-independent basis, Debye):
    X=              2.9564    Y=             -1.5811    Z=             -0.0655  Tot=              3.3533
 Quadrupole moment (field-independent basis, Debye-Ang):
   XX=            -25.2838   YY=            -20.0110   ZZ=            -25.7663
   XY=              2.4915   XZ=             -0.7869   YZ=              1.6143

 Normal termination of Gaussian 09 at Fri Apr 12 14:54:30 2019.
