 Gaussian 09, Revision D.01,
 Gaussian 09:  AS64L-G09RevD.01 24-Apr-2013

 --------------------------------------------------------------------
 #p hf 3-21g scf=tight NoSymmetry guess=read opt=(tight,modredundant)
 --------------------------------------------------------------------

 -----------------------------------
 Geometry optimization at the 2D-PES
 -----------------------------------
 Symbolic Z-matrix:
 Charge =  0 Multiplicity = 1

 SCF Done:  E(RHF) =  -226.395767431     A.U. after   13 cycles
 SCF Done:  E(RHF) =  -226.395768578     A.U. after   10 cycles
 SCF Done:  E(RHF) =  -226.395768985     A.U. after    9 cycles
 SCF Done:  E(RHF) =  -226.395769011     A.U. after    7 cycles
 SCF Done:  E(RHF) =  -226.395769011     A.U. after    6 cycles
 Optimization completed.
    -- Stationary point found.

                          Input orientation:
 ---------------------------------------------------------------------
 Center     Atomic      Atomic             Coordinates (Angstroms)
 Number     Number       Type             X           Y           Z
 ---------------------------------------------------------------------
      1          6           0        0.725196    0.633186    0.052162
      2          6           0        1.366951   -0.506135    0.005065
      3          1           0        1.184591    1.595129    0.128583
      4          1           0        2.437139   -0.529187   -0.007192
      5          1           0        0.838601   -1.436258   -0.040906
      6          8           0       -0.673417    0.669163   -0.027344
      7          8           0       -1.106717    1.509596    1.103845
      8          1           0       -2.044760    1.609757    0.870213
 ---------------------------------------------------------------------

 Alpha  occ. eigenvalues --  -20.52905 -20.51932 -11.23887 -11.17065  -1.46756
 Alpha  occ. eigenvalues --   -1.23511  -1.02799  -0.79440  -0.69282  -0.68362
 Alpha  occ. eigenvalues --   -0.64278  -0.57479  -0.55669  -0.51312  -0.45791
 Alpha  occ. eigenvalues --   -0.36962
 Alpha virt. eigenvalues --    0.16921   0.26141   0.28570   0.31728   0.32617
 Alpha virt. eigenvalues --    0.36166   0.49649   0.57279   0.89853   0.97409
 Alpha virt. eigenvalues --    0.99942   1.07074   1.10729   1.12255   1.23750

 Mulliken charges:
               1
     1  C    0.161691
     2  C   -0.481158
     3  H    0.246954
     4  H    0.226346
     5  H    0.242175
     6  O   -0.420097
     7  O   -0.394453
     8  H    0.418542
 Sum of Mulliken charges =   0.00000

 Dipole moment (field-independent basis, Debye):
    X=             -0.0940    Y=              0.2842    Z=             -0.2403  Tot=              0.3838
 Quadrupole moment (field-independent basis, Debye-Ang):
   XX=            -16.4006   YY=            -21.2515   ZZ=            -26.7164
   XY=             -2.4019   XZ=             -1.3436   YZ=             -0.1633

 Normal termination of Gaussian 09 at Fri Apr 12 16:11:47 2019.
