 Gaussian 09, Revision D.01,
 Gaussian 09:  AS64L-G09RevD.01 24-Apr-2013

 --------------------------------------------------------------------
 #p hf 3-21g scf=tight NoSymmetry guess=read opt=(tight,modredundant)
 --------------------------------------------------------------------

 -----------------------------------
 Geometry optimization at the 2D-PES
 -----------------------------------
 Symbolic Z-matrix:
 Charge =  0 Multiplicity = 1

 SCF Done:  E(RHF) =  -226.378520950     A.U. after   13 cycles
 SCF Done:  E(RHF) =  -226.378527070     A.U. after   12 cycles
 SCF Done:  E(RHF) =  -226.378529818     A.U. after   11 cycles
 SCF Done:  E(RHF) =  -226.378529891     A.U. after    9 cycles
 SCF Done:  E(RHF) =  -226.378529902     A.U. after    7 cycles
 SCF Done:  E(RHF) =  -226.378529903     A.U. after    6 cycles
 Optimization completed.
    -- Stationary point found.

                          Input orientation:
 ---------------------------------------------------------------------
 Center     Atomic      Atomic             Coordinates (Angstroms)
 Number     Number       Type             X           Y           Z
 ---------------------------------------------------------------------
      1          6           0        0.766975    0.630710    0.024346
      2          6           0        1.385773   -0.521987   -0.004905
      3          1           0        1.278333    1.569217    0.115500
      4          1           0        2.453924   -0.564860    0.042721
      5          1           0        0.841717   -1.441486   -0.072780
      6          8           0       -0.631914    0.696944    0.022941
      7          8           0       -1.134377    2.060901   -0.177034
      8          1           0       -0.355857    2.591219   -0.425488
 ---------------------------------------------------------------------

 Alpha  occ. eigenvalues --  -20.54175 -20.53287 -11.25991 -11.17726  -1.48015
 Alpha  occ. eigenvalues --   -1.24737  -1.04221  -0.82190  -0.72062  -0.66916
 Alpha  occ. eigenvalues --   -0.63963  -0.58876  -0.55273  -0.53041  -0.49047
 Alpha  occ. eigenvalues --   -0.36574
 Alpha virt. eigenvalues --    0.17423   0.22091   0.23752   0.30957   0.34017
 Alpha virt. eigenvalues --    0.35752   0.51396   0.56310   0.88720   0.95838
 Alpha virt. eigenvalues --    0.99190   1.05607   1.09828   1.11201   1.22930

 Mulliken charges:
               1
     1  C    0.123792
     2  C   -0.491474
     3  H    0.228493
     4  H    0.231114
     5  H    0.251125
     6  O   -0.382036
     7  O   -0.360812
     8  H    0.399798
 Sum of Mulliken charges =   0.00000

 Dipole moment (field-independent basis, Debye):
    X=              3.3462    Y=              1.1864    Z=             -0.4974  Tot=              3.5850
 Quadrupole moment (field-independent basis, Debye-Ang):
   XX=            -25.3095   YY=            -16.6270   ZZ=            -25.4902
   XY=              4.0362   XZ=              0.1362   YZ=             -1.4080

 Normal termination of Gaussian 09 at Fri Apr 12 15:33:56 2019.
