 Gaussian 09, Revision D.01,
 Gaussian 09:  AS64L-G09RevD.01 24-Apr-2013

 --------------------------------------------------------------------
 #p hf 3-21g scf=tight NoSymmetry guess=read opt=(tight,modredundant)
 --------------------------------------------------------------------

 -----------------------------------
 Geometry optimization at the 2D-PES
 -----------------------------------
 Symbolic Z-matrix:
 Charge =  0 Multiplicity = 1

 SCF Done:  E(RHF) =  -226.388150420     A.U. after   14 cycles
 SCF Done:  E(RHF) =  -226.388278980     A.U. after   13 cycles
 SCF Done:  E(RHF) =  -226.388306793     A.U. after   11 cycles
 SCF Done:  E(RHF) =  -226.388308758     A.U. after   10 cycles
 SCF Done:  E(RHF) =  -226.388308895     A.U. after    9 cycles
 SCF Done:  E(RHF) =  -226.388308909     A.U. after    8 cycles
 SCF Done:  E(RHF) =  -226.388308910     A.U. after    7 cycles
 Optimization completed.
    -- Stationary point found.

                          Input orientation:
 ---------------------------------------------------------------------
 Center     Atomic      Atomic             Coordinates (Angstroms)
 Number     Number       Type             X           Y           Z
 ---------------------------------------------------------------------
      1          6           0        0.724847    0.620102    0.030578
      2          6           0        1.382115   -0.511372   -0.012629
      3          1           0        1.191035    1.581830    0.062426
      4          1           0        2.452651   -0.522125   -0.000560
      5          1           0        0.877755   -1.457609   -0.035177
      6          8           0       -0.687951    0.669837    0.032326
      7          8           0       -1.156301    0.496378   -1.350987
      8          1           0       -1.094777   -0.469053   -1.460218
 ---------------------------------------------------------------------

 Alpha  occ. eigenvalues --  -20.52841 -20.52205 -11.24683 -11.18831  -1.46873
 Alpha  occ. eigenvalues --   -1.23201  -1.04444  -0.80096  -0.72077  -0.65563
 Alpha  occ. eigenvalues --   -0.65248  -0.59149  -0.56022  -0.48709  -0.46781
 Alpha  occ. eigenvalues --   -0.39285
 Alpha virt. eigenvalues --    0.14711   0.24213   0.28486   0.30248   0.32234
 Alpha virt. eigenvalues --    0.36249   0.49532   0.55805   0.87965   0.96309
 Alpha virt. eigenvalues --    0.97889   1.05900   1.08913   1.11139   1.25350

 Mulliken charges:
               1
     1  C    0.127773
     2  C   -0.471282
     3  H    0.248299
     4  H    0.236159
     5  H    0.229245
     6  O   -0.397660
     7  O   -0.374224
     8  H    0.401691
 Sum of Mulliken charges =   0.00000

 Dipole moment (field-independent basis, Debye):
    X=              2.1734    Y=             -2.0933    Z=             -0.4270  Tot=              3.0476
 Quadrupole moment (field-independent basis, Debye-Ang):
   XX=            -23.2067   YY=            -22.0064   ZZ=            -25.0008
   XY=              3.5972   XZ=              0.3529   YZ=              2.8860

 Normal termination of Gaussian 09 at Fri Apr 12 15:02:00 2019.
