 Gaussian 09, Revision D.01,
 Gaussian 09:  AS64L-G09RevD.01 24-Apr-2013

 --------------------------------------------------------------------
 #p hf 3-21g scf=tight NoSymmetry guess=read opt=(tight,modredundant)
 --------------------------------------------------------------------

 -----------------------------------
 Geometry optimization at the 2D-PES
 -----------------------------------
 Symbolic Z-matrix:
 Charge =  0 Multiplicity = 1

 SCF Done:  E(RHF) =  -226.392739206     A.U. after   13 cycles
 SCF Done:  E(RHF) =  -226.392746580     A.U. after   11 cycles
 SCF Done:  E(RHF) =  -226.392753219     A.U. after   10 cycles
 SCF Done:  E(RHF) =  -226.392753247     A.U. after    8 cycles
 SCF Done:  E(RHF) =  -226.392753254     A.U. after    8 cycles
 Optimization completed.
    -- Stationary point found.

                          Input orientation:
 ---------------------------------------------------------------------
 Center     Atomic      Atomic             Coordinates (Angstroms)
 Number     Number       Type             X           Y           Z
 ---------------------------------------------------------------------
      1          6           0        0.730312    0.638407    0.024602
      2          6           0        1.372532   -0.501406   -0.022280
      3          1           0        1.188107    1.602957    0.070152
      4          1           0        2.442052   -0.527374    0.019275
      5          1           0        0.845283   -1.432473   -0.074193
      6          8           0       -0.677132    0.663395    0.053018
      7          8           0       -1.103098    1.606201   -0.987753
      8          1           0       -1.027552    1.061893   -1.792942
 ---------------------------------------------------------------------

 Alpha  occ. eigenvalues --  -20.53488 -20.52509 -11.24570 -11.18119  -1.47585
 Alpha  occ. eigenvalues --   -1.23635  -1.03837  -0.80233  -0.72432  -0.65599
 Alpha  occ. eigenvalues --   -0.63791  -0.60375  -0.55743  -0.49523  -0.47397
 Alpha  occ. eigenvalues --   -0.38375
 Alpha virt. eigenvalues --    0.16176   0.25283   0.27463   0.30865   0.32330
 Alpha virt. eigenvalues --    0.35676   0.48859   0.56456   0.88955   0.96426
 Alpha virt. eigenvalues --    0.98802   1.06148   1.09753   1.10810   1.24242

 Mulliken charges:
               1
     1  C    0.119620
     2  C   -0.480908
     3  H    0.253156
     4  H    0.231310
     5  H    0.243884
     6  O   -0.391224
     7  O   -0.380609
     8  H    0.404770
 Sum of Mulliken charges =   0.00000

 Dipole moment (field-independent basis, Debye):
    X=              2.0774    Y=             -1.0731    Z=             -1.7950  Tot=              2.9477
 Quadrupole moment (field-independent basis, Debye-Ang):
   XX=            -23.4345   YY=            -24.9626   ZZ=            -20.7784
   XY=              2.6313   XZ=              1.9828   YZ=             -0.5124

 Normal termination of Gaussian 09 at Fri Apr 12 15:20:02 2019.
