 Gaussian 09, Revision D.01,
 Gaussian 09:  AS64L-G09RevD.01 24-Apr-2013

 --------------------------------------------------------------------
 #p hf 3-21g scf=tight NoSymmetry guess=read opt=(tight,modredundant)
 --------------------------------------------------------------------

 -----------------------------------
 Geometry optimization at the 2D-PES
 -----------------------------------
 Symbolic Z-matrix:
 Charge =  0 Multiplicity = 1

 SCF Done:  E(RHF) =  -226.392198794     A.U. after   12 cycles
 SCF Done:  E(RHF) =  -226.392218443     A.U. after   12 cycles
 SCF Done:  E(RHF) =  -226.392268021     A.U. after   12 cycles
 SCF Done:  E(RHF) =  -226.392268652     A.U. after   10 cycles
 SCF Done:  E(RHF) =  -226.392268757     A.U. after    9 cycles
 SCF Done:  E(RHF) =  -226.392268764     A.U. after    8 cycles
 SCF Done:  E(RHF) =  -226.392268765     A.U. after    6 cycles
 Optimization completed.
    -- Stationary point found.

                          Input orientation:
 ---------------------------------------------------------------------
 Center     Atomic      Atomic             Coordinates (Angstroms)
 Number     Number       Type             X           Y           Z
 ---------------------------------------------------------------------
      1          6           0        0.742187    0.568532    0.049051
      2          6           0        1.440785   -0.534741   -0.059853
      3          1           0        1.170936    1.547184    0.105850
      4          1           0        2.508844   -0.484034   -0.089162
      5          1           0        0.991144   -1.504393   -0.070427
      6          8           0       -0.645388    0.699859    0.059655
      7          8           0       -1.310790   -0.588990   -0.070256
      8          1           0       -0.984371   -0.914780   -0.931180
 ---------------------------------------------------------------------

 Alpha  occ. eigenvalues --  -20.54818 -20.53573 -11.25699 -11.17405  -1.49028
 Alpha  occ. eigenvalues --   -1.24644  -1.04540  -0.80834  -0.71937  -0.68902
 Alpha  occ. eigenvalues --   -0.65356  -0.57018  -0.55310  -0.53288  -0.49045
 Alpha  occ. eigenvalues --   -0.37193
 Alpha virt. eigenvalues --    0.18699   0.21823   0.27983   0.28810   0.33052
 Alpha virt. eigenvalues --    0.36730   0.49313   0.58267   0.88094   0.96317
 Alpha virt. eigenvalues --    1.00014   1.05923   1.08948   1.11123   1.24656

 Mulliken charges:
               1
     1  C    0.143769
     2  C   -0.530742
     3  H    0.268551
     4  H    0.231640
     5  H    0.231847
     6  O   -0.391419
     7  O   -0.362587
     8  H    0.408940
 Sum of Mulliken charges =   0.00000

 Dipole moment (field-independent basis, Debye):
    X=              2.2309    Y=             -0.6657    Z=             -1.7209  Tot=              2.8951
 Quadrupole moment (field-independent basis, Debye-Ang):
   XX=            -24.7318   YY=            -21.2718   ZZ=            -23.8582
   XY=              2.0355   XZ=              1.8856   YZ=              1.9917

 Normal termination of Gaussian 09 at Fri Apr 12 17:56:02 2019.
