 Gaussian 09, Revision D.01,
 Gaussian 09:  AS64L-G09RevD.01 24-Apr-2013

 --------------------------------------------------------------------
 #p hf 3-21g scf=tight NoSymmetry guess=read opt=(tight,modredundant)
 --------------------------------------------------------------------

 -----------------------------------
 Geometry optimization at the 2D-PES
 -----------------------------------
 Symbolic Z-matrix:
 Charge =  0 Multiplicity = 1

 SCF Done:  E(RHF) =  -226.391222327     A.U. after   13 cycles
 SCF Done:  E(RHF) =  -226.391230752     A.U. after   11 cycles
 SCF Done:  E(RHF) =  -226.391235038     A.U. after   10 cycles
 SCF Done:  E(RHF) =  -226.391235101     A.U. after    8 cycles
 SCF Done:  E(RHF) =  -226.391235107     A.U. after    6 cycles
 Optimization completed.
    -- Stationary point found.

                          Input orientation:
 ---------------------------------------------------------------------
 Center     Atomic      Atomic             Coordinates (Angstroms)
 Number     Number       Type             X           Y           Z
 ---------------------------------------------------------------------
      1          6           0        0.732976    0.618317    0.042935
      2          6           0        1.380802   -0.515942   -0.008642
      3          1           0        1.204489    1.577131    0.112183
      4          1           0        2.451512   -0.536537    0.005809
      5          1           0        0.856209   -1.447924   -0.063144
      6          8           0       -0.676584    0.675748   -0.009616
      7          8           0       -1.182235    0.355990    1.337227
      8          1           0       -1.666056    1.175302    1.540672
 ---------------------------------------------------------------------

 Alpha  occ. eigenvalues --  -20.52272 -20.51647 -11.23598 -11.17672  -1.46144
 Alpha  occ. eigenvalues --   -1.22831  -1.03190  -0.79365  -0.70105  -0.66605
 Alpha  occ. eigenvalues --   -0.64039  -0.58765  -0.55485  -0.48800  -0.45024
 Alpha  occ. eigenvalues --   -0.38439
 Alpha virt. eigenvalues --    0.15432   0.26701   0.29230   0.30821   0.32168
 Alpha virt. eigenvalues --    0.36584   0.49562   0.56707   0.88587   0.97493
 Alpha virt. eigenvalues --    0.98566   1.06810   1.10255   1.12768   1.23451

 Mulliken charges:
               1
     1  C    0.124974
     2  C   -0.446261
     3  H    0.230576
     4  H    0.225933
     5  H    0.252835
     6  O   -0.410783
     7  O   -0.386237
     8  H    0.408963
 Sum of Mulliken charges =   0.00000

 Dipole moment (field-independent basis, Debye):
    X=              1.0475    Y=              1.3480    Z=              0.7356  Tot=              1.8590
 Quadrupole moment (field-independent basis, Debye-Ang):
   XX=            -19.9490   YY=            -19.4450   ZZ=            -24.3256
   XY=             -2.3731   XZ=             -2.2440   YZ=              3.3319

 Normal termination of Gaussian 09 at Fri Apr 12 16:46:21 2019.
