 Gaussian 09, Revision D.01,
 Gaussian 09:  AS64L-G09RevD.01 24-Apr-2013

 --------------------------------------------------------------------
 #p hf 3-21g scf=tight NoSymmetry guess=read opt=(tight,modredundant)
 --------------------------------------------------------------------

 -----------------------------------
 Geometry optimization at the 2D-PES
 -----------------------------------
 Symbolic Z-matrix:
 Charge =  0 Multiplicity = 1

 SCF Done:  E(RHF) =  -226.380747882     A.U. after   13 cycles
 SCF Done:  E(RHF) =  -226.380763542     A.U. after   13 cycles
 SCF Done:  E(RHF) =  -226.380792170     A.U. after   12 cycles
 SCF Done:  E(RHF) =  -226.380792298     A.U. after    9 cycles
 SCF Done:  E(RHF) =  -226.380792328     A.U. after    8 cycles
 SCF Done:  E(RHF) =  -226.380792330     A.U. after    6 cycles
 Optimization completed.
    -- Stationary point found.

                          Input orientation:
 ---------------------------------------------------------------------
 Center     Atomic      Atomic             Coordinates (Angstroms)
 Number     Number       Type             X           Y           Z
 ---------------------------------------------------------------------
      1          6           0        0.765230    0.629665    0.058502
      2          6           0        1.383040   -0.522117   -0.000257
      3          1           0        1.278494    1.571245    0.086999
      4          1           0        2.451991   -0.564646   -0.027457
      5          1           0        0.835778   -1.441737   -0.029315
      6          8           0       -0.632584    0.701304   -0.005217
      7          8           0       -1.142273    1.965717    0.534690
      8          1           0       -0.435658    2.613977    0.359470
 ---------------------------------------------------------------------

 Alpha  occ. eigenvalues --  -20.54148 -20.53210 -11.25813 -11.17756  -1.48031
 Alpha  occ. eigenvalues --   -1.24591  -1.04144  -0.82035  -0.71649  -0.67510
 Alpha  occ. eigenvalues --   -0.64062  -0.58279  -0.55746  -0.52443  -0.48955
 Alpha  occ. eigenvalues --   -0.36801
 Alpha virt. eigenvalues --    0.17526   0.22551   0.23501   0.30987   0.34213
 Alpha virt. eigenvalues --    0.35703   0.51402   0.56343   0.88887   0.95838
 Alpha virt. eigenvalues --    0.99166   1.05491   1.09887   1.11191   1.23309

 Mulliken charges:
               1
     1  C    0.129915
     2  C   -0.488231
     3  H    0.222848
     4  H    0.230649
     5  H    0.251469
     6  O   -0.383361
     7  O   -0.361573
     8  H    0.398285
 Sum of Mulliken charges =   0.00000

 Dipole moment (field-independent basis, Debye):
    X=              3.2115    Y=              1.3527    Z=             -0.2266  Tot=              3.4921
 Quadrupole moment (field-independent basis, Debye-Ang):
   XX=            -25.2073   YY=            -15.6684   ZZ=            -26.1389
   XY=              3.3819   XZ=              0.8034   YZ=              0.0289

 Normal termination of Gaussian 09 at Fri Apr 12 15:53:23 2019.
