 Gaussian 09, Revision D.01,
 Gaussian 09:  AS64L-G09RevD.01 24-Apr-2013

 --------------------------------------------------------------------
 #p hf 3-21g scf=tight NoSymmetry guess=read opt=(tight,modredundant)
 --------------------------------------------------------------------

 -----------------------------------
 Geometry optimization at the 2D-PES
 -----------------------------------
 Symbolic Z-matrix:
 Charge =  0 Multiplicity = 1

 SCF Done:  E(RHF) =  -226.381502661     A.U. after   13 cycles
 SCF Done:  E(RHF) =  -226.381509366     A.U. after   11 cycles
 SCF Done:  E(RHF) =  -226.381511364     A.U. after   10 cycles
 SCF Done:  E(RHF) =  -226.381511439     A.U. after    8 cycles
 SCF Done:  E(RHF) =  -226.381511440     A.U. after    6 cycles
 Optimization completed.
    -- Stationary point found.

                          Input orientation:
 ---------------------------------------------------------------------
 Center     Atomic      Atomic             Coordinates (Angstroms)
 Number     Number       Type             X           Y           Z
 ---------------------------------------------------------------------
      1          6           0        0.741409    0.629067    0.034340
      2          6           0        1.393296   -0.507126   -0.005403
      3          1           0        1.209687    1.590712    0.082488
      4          1           0        2.463866   -0.526386    0.020547
      5          1           0        0.869914   -1.441680   -0.040840
      6          8           0       -0.669098    0.662343    0.032514
      7          8           0       -1.170666    0.724656   -1.360207
      8          1           0       -0.378223    0.561286   -1.905377
 ---------------------------------------------------------------------

 Alpha  occ. eigenvalues --  -20.52727 -20.51812 -11.25169 -11.19791  -1.46256
 Alpha  occ. eigenvalues --   -1.23334  -1.05091  -0.81251  -0.71926  -0.67442
 Alpha  occ. eigenvalues --   -0.60629  -0.59149  -0.56755  -0.52740  -0.43873
 Alpha  occ. eigenvalues --   -0.40167
 Alpha virt. eigenvalues --    0.13521   0.26653   0.27264   0.29288   0.30505
 Alpha virt. eigenvalues --    0.36139   0.49125   0.54978   0.87371   0.96856
 Alpha virt. eigenvalues --    0.97284   1.04650   1.08304   1.11117   1.23549

 Mulliken charges:
               1
     1  C    0.064382
     2  C   -0.448996
     3  H    0.245490
     4  H    0.236531
     5  H    0.257960
     6  O   -0.378050
     7  O   -0.374831
     8  H    0.397513
 Sum of Mulliken charges =   0.00000

 Dipole moment (field-independent basis, Debye):
    X=              3.7388    Y=             -0.6597    Z=             -1.1799  Tot=              3.9757
 Quadrupole moment (field-independent basis, Debye-Ang):
   XX=            -25.2469   YY=            -22.5226   ZZ=            -21.8408
   XY=              2.2757   XZ=             -1.5782   YZ=             -0.1028

 Normal termination of Gaussian 09 at Fri Apr 12 15:04:15 2019.
