 Gaussian 09, Revision D.01,
 Gaussian 09:  AS64L-G09RevD.01 24-Apr-2013

 --------------------------------------------------------------------
 #p hf 3-21g scf=tight NoSymmetry guess=read opt=(tight,modredundant)
 --------------------------------------------------------------------

 -----------------------------------
 Geometry optimization at the 2D-PES
 -----------------------------------
 Symbolic Z-matrix:
 Charge =  0 Multiplicity = 1

 SCF Done:  E(RHF) =  -226.391333287     A.U. after   12 cycles
 SCF Done:  E(RHF) =  -226.391360697     A.U. after   13 cycles
 SCF Done:  E(RHF) =  -226.391401744     A.U. after   12 cycles
 SCF Done:  E(RHF) =  -226.391402029     A.U. after    9 cycles
 SCF Done:  E(RHF) =  -226.391402075     A.U. after    9 cycles
 SCF Done:  E(RHF) =  -226.391402081     A.U. after    7 cycles
 Optimization completed.
    -- Stationary point found.

                          Input orientation:
 ---------------------------------------------------------------------
 Center     Atomic      Atomic             Coordinates (Angstroms)
 Number     Number       Type             X           Y           Z
 ---------------------------------------------------------------------
      1          6           0        0.741452    0.566054    0.068903
      2          6           0        1.440050   -0.535849   -0.047641
      3          1           0        1.175010    1.544016    0.093012
      4          1           0        2.507687   -0.482676   -0.089094
      5          1           0        1.000226   -1.510409   -0.043053
      6          8           0       -0.647365    0.703012    0.064232
      7          8           0       -1.316930   -0.552429    0.375334
      8          1           0       -1.144300   -1.090757   -0.419295
 ---------------------------------------------------------------------

 Alpha  occ. eigenvalues --  -20.54596 -20.53494 -11.25504 -11.17441  -1.48808
 Alpha  occ. eigenvalues --   -1.24557  -1.04423  -0.80565  -0.72001  -0.68650
 Alpha  occ. eigenvalues --   -0.65804  -0.57180  -0.54014  -0.53606  -0.49074
 Alpha  occ. eigenvalues --   -0.37185
 Alpha virt. eigenvalues --    0.18073   0.22091   0.28031   0.28604   0.33910
 Alpha virt. eigenvalues --    0.36819   0.49476   0.58355   0.88240   0.96251
 Alpha virt. eigenvalues --    0.99426   1.06116   1.09165   1.11261   1.25039

 Mulliken charges:
               1
     1  C    0.150023
     2  C   -0.519924
     3  H    0.266593
     4  H    0.232670
     5  H    0.219681
     6  O   -0.395866
     7  O   -0.363373
     8  H    0.410197
 Sum of Mulliken charges =   0.00000

 Dipole moment (field-independent basis, Debye):
    X=              1.9460    Y=             -1.1234    Z=             -1.5030  Tot=              2.7034
 Quadrupole moment (field-independent basis, Debye-Ang):
   XX=            -23.9836   YY=            -20.4440   ZZ=            -25.6176
   XY=              2.8949   XZ=              2.1116   YZ=              1.6944

 Normal termination of Gaussian 09 at Fri Apr 12 17:33:41 2019.
