 Gaussian 09, Revision D.01,
 Gaussian 09:  AS64L-G09RevD.01 24-Apr-2013

 --------------------------------------------------------------------
 #p hf 3-21g scf=tight NoSymmetry guess=read opt=(tight,modredundant)
 --------------------------------------------------------------------

 -----------------------------------
 Geometry optimization at the 2D-PES
 -----------------------------------
 Symbolic Z-matrix:
 Charge =  0 Multiplicity = 1

 SCF Done:  E(RHF) =  -226.396519717     A.U. after   13 cycles
 SCF Done:  E(RHF) =  -226.396528758     A.U. after   12 cycles
 SCF Done:  E(RHF) =  -226.396542589     A.U. after   11 cycles
 SCF Done:  E(RHF) =  -226.396542682     A.U. after    9 cycles
 SCF Done:  E(RHF) =  -226.396542688     A.U. after    8 cycles
 SCF Done:  E(RHF) =  -226.396542688     A.U. after    6 cycles
 Optimization completed.
    -- Stationary point found.

                          Input orientation:
 ---------------------------------------------------------------------
 Center     Atomic      Atomic             Coordinates (Angstroms)
 Number     Number       Type             X           Y           Z
 ---------------------------------------------------------------------
      1          6           0        0.737946    0.572116    0.057637
      2          6           0        1.425453   -0.536113   -0.047554
      3          1           0        1.171779    1.549753    0.095512
      4          1           0        2.494512   -0.498620   -0.073700
      5          1           0        0.953771   -1.494339   -0.062111
      6          8           0       -0.653246    0.707082    0.055257
      7          8           0       -1.281961   -0.566202    0.388776
      8          1           0       -1.675442   -0.806096   -0.468380
 ---------------------------------------------------------------------

 Alpha  occ. eigenvalues --  -20.54080 -20.53127 -11.24556 -11.16402  -1.48276
 Alpha  occ. eigenvalues --   -1.24152  -1.03364  -0.79585  -0.70319  -0.69505
 Alpha  occ. eigenvalues --   -0.65063  -0.57048  -0.53673  -0.52755  -0.48642
 Alpha  occ. eigenvalues --   -0.36312
 Alpha virt. eigenvalues --    0.18778   0.23206   0.28835   0.29731   0.33292
 Alpha virt. eigenvalues --    0.37197   0.49698   0.58408   0.88838   0.96698
 Alpha virt. eigenvalues --    1.01042   1.07026   1.10173   1.12332   1.22886

 Mulliken charges:
               1
     1  C    0.149744
     2  C   -0.506586
     3  H    0.259968
     4  H    0.223503
     5  H    0.238922
     6  O   -0.408356
     7  O   -0.373051
     8  H    0.415855
 Sum of Mulliken charges =   0.00000

 Dipole moment (field-independent basis, Debye):
    X=              0.7618    Y=             -0.6697    Z=             -1.6980  Tot=              1.9779
 Quadrupole moment (field-independent basis, Debye-Ang):
   XX=            -20.6580   YY=            -21.6533   ZZ=            -25.4965
   XY=              3.1355   XZ=              2.9634   YZ=              1.5754

 Normal termination of Gaussian 09 at Fri Apr 12 17:35:08 2019.
