 Gaussian 09, Revision D.01,
 Gaussian 09:  AS64L-G09RevD.01 24-Apr-2013

 --------------------------------------------------------------------
 #p hf 3-21g scf=tight NoSymmetry guess=read opt=(tight,modredundant)
 --------------------------------------------------------------------

 -----------------------------------
 Geometry optimization at the 2D-PES
 -----------------------------------
 Symbolic Z-matrix:
 Charge =  0 Multiplicity = 1

 SCF Done:  E(RHF) =  -226.388473567     A.U. after   12 cycles
 SCF Done:  E(RHF) =  -226.388482217     A.U. after   12 cycles
 SCF Done:  E(RHF) =  -226.388489511     A.U. after   10 cycles
 SCF Done:  E(RHF) =  -226.388489538     A.U. after    8 cycles
 SCF Done:  E(RHF) =  -226.388489545     A.U. after    7 cycles
 Optimization completed.
    -- Stationary point found.

                          Input orientation:
 ---------------------------------------------------------------------
 Center     Atomic      Atomic             Coordinates (Angstroms)
 Number     Number       Type             X           Y           Z
 ---------------------------------------------------------------------
      1          6           0        0.740592    0.620822    0.043239
      2          6           0        1.382445   -0.517024   -0.005168
      3          1           0        1.218184    1.578290    0.103616
      4          1           0        2.453124   -0.545782    0.000979
      5          1           0        0.849187   -1.444225   -0.057510
      6          8           0       -0.671001    0.676597   -0.012568
      7          8           0       -1.188648    0.602326    1.362520
      8          1           0       -1.072222    1.517545    1.676910
 ---------------------------------------------------------------------

 Alpha  occ. eigenvalues --  -20.52626 -20.51914 -11.24017 -11.18302  -1.46520
 Alpha  occ. eigenvalues --   -1.22970  -1.03718  -0.80306  -0.69528  -0.68555
 Alpha  occ. eigenvalues --   -0.62662  -0.58552  -0.56606  -0.47871  -0.46407
 Alpha  occ. eigenvalues --   -0.38981
 Alpha virt. eigenvalues --    0.14854   0.26337   0.28310   0.30456   0.32070
 Alpha virt. eigenvalues --    0.36063   0.49389   0.56224   0.88193   0.96843
 Alpha virt. eigenvalues --    0.98446   1.06140   1.09629   1.11239   1.25343

 Mulliken charges:
               1
     1  C    0.102977
     2  C   -0.441975
     3  H    0.226967
     4  H    0.228204
     5  H    0.256310
     6  O   -0.393445
     7  O   -0.378376
     8  H    0.399338
 Sum of Mulliken charges =   0.00000

 Dipole moment (field-independent basis, Debye):
    X=              2.3159    Y=              1.4568    Z=              0.8909  Tot=              2.8774
 Quadrupole moment (field-independent basis, Debye-Ang):
   XX=            -23.4616   YY=            -18.0171   ZZ=            -23.6187
   XY=             -1.0004   XZ=             -0.4684   YZ=              4.0785

 Normal termination of Gaussian 09 at Fri Apr 12 16:37:09 2019.
