 Gaussian 09, Revision D.01,
 Gaussian 09:  AS64L-G09RevD.01 24-Apr-2013

 --------------------------------------------------------------------
 #p hf 3-21g scf=tight NoSymmetry guess=read opt=(tight,modredundant)
 --------------------------------------------------------------------

 -----------------------------------
 Geometry optimization at the 2D-PES
 -----------------------------------
 Symbolic Z-matrix:
 Charge =  0 Multiplicity = 1

 SCF Done:  E(RHF) =  -226.396224747     A.U. after   12 cycles
 SCF Done:  E(RHF) =  -226.396225976     A.U. after   10 cycles
 SCF Done:  E(RHF) =  -226.396226445     A.U. after    9 cycles
 SCF Done:  E(RHF) =  -226.396226471     A.U. after    7 cycles
 Optimization completed.
    -- Stationary point found.

                          Input orientation:
 ---------------------------------------------------------------------
 Center     Atomic      Atomic             Coordinates (Angstroms)
 Number     Number       Type             X           Y           Z
 ---------------------------------------------------------------------
      1          6           0        0.725915    0.635026    0.054155
      2          6           0        1.367886   -0.504268    0.002463
      3          1           0        1.183593    1.598210    0.120950
      4          1           0        2.437864   -0.524854   -0.017395
      5          1           0        0.841528   -1.435814   -0.036743
      6          8           0       -0.671631    0.671233   -0.020097
      7          8           0       -1.093715    1.694231    0.949760
      8          1           0       -1.981992    1.880891    0.602896
 ---------------------------------------------------------------------

 Alpha  occ. eigenvalues --  -20.53182 -20.52217 -11.24006 -11.16801  -1.47134
 Alpha  occ. eigenvalues --   -1.23732  -1.02722  -0.79549  -0.69607  -0.68259
 Alpha  occ. eigenvalues --   -0.64570  -0.57235  -0.55585  -0.51559  -0.46703
 Alpha  occ. eigenvalues --   -0.36464
 Alpha virt. eigenvalues --    0.17477   0.25321   0.28353   0.31927   0.32965
 Alpha virt. eigenvalues --    0.36131   0.49744   0.57452   0.90104   0.97356
 Alpha virt. eigenvalues --    1.00205   1.06942   1.10863   1.12398   1.23337

 Mulliken charges:
               1
     1  C    0.165477
     2  C   -0.491109
     3  H    0.250731
     4  H    0.226051
     5  H    0.241205
     6  O   -0.419513
     7  O   -0.392152
     8  H    0.419310
 Sum of Mulliken charges =   0.00000

 Dipole moment (field-independent basis, Debye):
    X=             -0.0556    Y=              0.5887    Z=             -0.5109  Tot=              0.7815
 Quadrupole moment (field-independent basis, Debye-Ang):
   XX=            -16.9618   YY=            -20.3492   ZZ=            -26.9071
   XY=             -2.9636   XZ=             -0.4317   YZ=             -0.6540

 Normal termination of Gaussian 09 at Fri Apr 12 16:01:35 2019.
