 Gaussian 09, Revision D.01,
 Gaussian 09:  AS64L-G09RevD.01 24-Apr-2013

 --------------------------------------------------------------------
 #p hf 3-21g scf=tight NoSymmetry guess=read opt=(tight,modredundant)
 --------------------------------------------------------------------

 -----------------------------------
 Geometry optimization at the 2D-PES
 -----------------------------------
 Symbolic Z-matrix:
 Charge =  0 Multiplicity = 1

 SCF Done:  E(RHF) =  -226.394194004     A.U. after   13 cycles
 SCF Done:  E(RHF) =  -226.394194563     A.U. after    9 cycles
 SCF Done:  E(RHF) =  -226.394194607     A.U. after    7 cycles
 SCF Done:  E(RHF) =  -226.394194623     A.U. after    7 cycles
 Optimization completed.
    -- Stationary point found.

                          Input orientation:
 ---------------------------------------------------------------------
 Center     Atomic      Atomic             Coordinates (Angstroms)
 Number     Number       Type             X           Y           Z
 ---------------------------------------------------------------------
      1          6           0        0.724333    0.629230    0.044951
      2          6           0        1.367372   -0.509064    0.003889
      3          1           0        1.188494    1.588470    0.131901
      4          1           0        2.437874   -0.533903    0.008372
      5          1           0        0.838669   -1.438512   -0.052676
      6          8           0       -0.678475    0.666233   -0.029512
      7          8           0       -1.131843    1.073311    1.317334
      8          1           0       -2.091429    1.068170    1.160737
 ---------------------------------------------------------------------

 Alpha  occ. eigenvalues --  -20.52386 -20.51516 -11.23661 -11.17511  -1.46114
 Alpha  occ. eigenvalues --   -1.23088  -1.02961  -0.79213  -0.68789  -0.68551
 Alpha  occ. eigenvalues --   -0.63975  -0.57519  -0.55601  -0.51053  -0.44185
 Alpha  occ. eigenvalues --   -0.37993
 Alpha virt. eigenvalues --    0.15973   0.27434   0.28917   0.31185   0.32119
 Alpha virt. eigenvalues --    0.36321   0.49485   0.57018   0.89359   0.97496
 Alpha virt. eigenvalues --    0.99434   1.07149   1.10485   1.12246   1.23957

 Mulliken charges:
               1
     1  C    0.150210
     2  C   -0.461060
     3  H    0.239710
     4  H    0.226945
     5  H    0.243983
     6  O   -0.420612
     7  O   -0.395238
     8  H    0.416062
 Sum of Mulliken charges =   0.00000

 Dipole moment (field-independent basis, Debye):
    X=             -0.0126    Y=             -0.1499    Z=             -0.0426  Tot=              0.1563
 Quadrupole moment (field-independent basis, Debye-Ang):
   XX=            -16.0315   YY=            -22.1312   ZZ=            -26.4996
   XY=             -1.0848   XZ=             -2.1530   YZ=              0.0450

 Normal termination of Gaussian 09 at Fri Apr 12 16:25:23 2019.
