 Gaussian 09, Revision D.01,
 Gaussian 09:  AS64L-G09RevD.01 24-Apr-2013

 --------------------------------------------------------------------
 #p hf 3-21g scf=tight NoSymmetry guess=read opt=(tight,modredundant)
 --------------------------------------------------------------------

 -----------------------------------
 Geometry optimization at the 2D-PES
 -----------------------------------
 Symbolic Z-matrix:
 Charge =  0 Multiplicity = 1

 SCF Done:  E(RHF) =  -226.395362967     A.U. after   13 cycles
 SCF Done:  E(RHF) =  -226.395368333     A.U. after   10 cycles
 SCF Done:  E(RHF) =  -226.395373073     A.U. after   10 cycles
 SCF Done:  E(RHF) =  -226.395373132     A.U. after    8 cycles
 SCF Done:  E(RHF) =  -226.395373140     A.U. after    8 cycles
 Optimization completed.
    -- Stationary point found.

                          Input orientation:
 ---------------------------------------------------------------------
 Center     Atomic      Atomic             Coordinates (Angstroms)
 Number     Number       Type             X           Y           Z
 ---------------------------------------------------------------------
      1          6           0        0.737934    0.578970    0.063548
      2          6           0        1.415525   -0.535319   -0.035846
      3          1           0        1.179582    1.554209    0.083362
      4          1           0        2.485418   -0.509739   -0.058132
      5          1           0        0.928108   -1.486092   -0.064274
      6          8           0       -0.657258    0.707573    0.050084
      7          8           0       -1.264929   -0.499609    0.610000
      8          1           0       -1.746371   -0.113244    1.361222
 ---------------------------------------------------------------------

 Alpha  occ. eigenvalues --  -20.53532 -20.52598 -11.24117 -11.16314  -1.47616
 Alpha  occ. eigenvalues --   -1.23697  -1.03016  -0.79454  -0.70978  -0.66784
 Alpha  occ. eigenvalues --   -0.63221  -0.60873  -0.54516  -0.49456  -0.48190
 Alpha  occ. eigenvalues --   -0.36336
 Alpha virt. eigenvalues --    0.18224   0.24183   0.28928   0.30145   0.33535
 Alpha virt. eigenvalues --    0.37249   0.49952   0.58396   0.88914   0.96979
 Alpha virt. eigenvalues --    1.01065   1.07154   1.10547   1.12931   1.22368

 Mulliken charges:
               1
     1  C    0.137840
     2  C   -0.491496
     3  H    0.252600
     4  H    0.220908
     5  H    0.255075
     6  O   -0.411849
     7  O   -0.381068
     8  H    0.417989
 Sum of Mulliken charges =   0.00000

 Dipole moment (field-independent basis, Debye):
    X=              0.6766    Y=              0.5279    Z=              1.7666  Tot=              1.9640
 Quadrupole moment (field-independent basis, Debye-Ang):
   XX=            -19.9806   YY=            -22.8864   ZZ=            -22.3310
   XY=              0.5504   XZ=             -3.7329   YZ=              0.5685

 Normal termination of Gaussian 09 at Fri Apr 12 17:26:04 2019.
