 Gaussian 09, Revision D.01,
 Gaussian 09:  AS64L-G09RevD.01 24-Apr-2013

 --------------------------------------------------------------------
 #p hf 3-21g scf=tight NoSymmetry guess=read opt=(tight,modredundant)
 --------------------------------------------------------------------

 -----------------------------------
 Geometry optimization at the 2D-PES
 -----------------------------------
 Symbolic Z-matrix:
 Charge =  0 Multiplicity = 1

 SCF Done:  E(RHF) =  -226.394084618     A.U. after   13 cycles
 SCF Done:  E(RHF) =  -226.394095716     A.U. after   12 cycles
 SCF Done:  E(RHF) =  -226.394109807     A.U. after   10 cycles
 SCF Done:  E(RHF) =  -226.394109870     A.U. after    9 cycles
 SCF Done:  E(RHF) =  -226.394109876     A.U. after    8 cycles
 Optimization completed.
    -- Stationary point found.

                          Input orientation:
 ---------------------------------------------------------------------
 Center     Atomic      Atomic             Coordinates (Angstroms)
 Number     Number       Type             X           Y           Z
 ---------------------------------------------------------------------
      1          6           0        0.739057    0.574694    0.068104
      2          6           0        1.424588   -0.534664   -0.040884
      3          1           0        1.178259    1.550214    0.091147
      4          1           0        2.493560   -0.500248   -0.073256
      5          1           0        0.957500   -1.496293   -0.042970
      6          8           0       -0.654430    0.705585    0.054592
      7          8           0       -1.284402   -0.493525    0.597141
      8          1           0       -1.543778   -0.959779   -0.217311
 ---------------------------------------------------------------------

 Alpha  occ. eigenvalues --  -20.53972 -20.53123 -11.24706 -11.16910  -1.48184
 Alpha  occ. eigenvalues --   -1.24098  -1.03686  -0.79750  -0.70560  -0.69418
 Alpha  occ. eigenvalues --   -0.65369  -0.56887  -0.53874  -0.52576  -0.48637
 Alpha  occ. eigenvalues --   -0.36742
 Alpha virt. eigenvalues --    0.17759   0.23412   0.28773   0.29410   0.33134
 Alpha virt. eigenvalues --    0.37075   0.49724   0.57942   0.88616   0.96590
 Alpha virt. eigenvalues --    0.99883   1.06712   1.09864   1.11942   1.23943

 Mulliken charges:
               1
     1  C    0.149303
     2  C   -0.501366
     3  H    0.260059
     4  H    0.227343
     5  H    0.228137
     6  O   -0.405887
     7  O   -0.370333
     8  H    0.412745
 Sum of Mulliken charges =   0.00000

 Dipole moment (field-independent basis, Debye):
    X=              1.1079    Y=             -1.1153    Z=             -1.5300  Tot=              2.1937
 Quadrupole moment (field-independent basis, Debye-Ang):
   XX=            -21.5149   YY=            -20.8837   ZZ=            -26.3054
   XY=              3.5944   XZ=              2.4613   YZ=              1.3828

 Normal termination of Gaussian 09 at Fri Apr 12 17:29:49 2019.
