 Gaussian 09, Revision D.01,
 Gaussian 09:  AS64L-G09RevD.01 24-Apr-2013

 --------------------------------------------------------------------
 #p hf 3-21g scf=tight NoSymmetry guess=read opt=(tight,modredundant)
 --------------------------------------------------------------------

 -----------------------------------
 Geometry optimization at the 2D-PES
 -----------------------------------
 Symbolic Z-matrix:
 Charge =  0 Multiplicity = 1

 SCF Done:  E(RHF) =  -226.395293030     A.U. after   13 cycles
 SCF Done:  E(RHF) =  -226.395299885     A.U. after   11 cycles
 SCF Done:  E(RHF) =  -226.395305477     A.U. after   10 cycles
 SCF Done:  E(RHF) =  -226.395305538     A.U. after    8 cycles
 SCF Done:  E(RHF) =  -226.395305540     A.U. after    7 cycles
 Optimization completed.
    -- Stationary point found.

                          Input orientation:
 ---------------------------------------------------------------------
 Center     Atomic      Atomic             Coordinates (Angstroms)
 Number     Number       Type             X           Y           Z
 ---------------------------------------------------------------------
      1          6           0        0.733237    0.636828    0.051436
      2          6           0        1.369947   -0.505384   -0.004671
      3          1           0        1.195866    1.597550    0.111927
      4          1           0        2.439804   -0.527259   -0.019976
      5          1           0        0.843171   -1.436843   -0.041737
      6          8           0       -0.667382    0.679632    0.001201
      7          8           0       -1.079484    1.969475    0.556027
      8          1           0       -1.549359    2.344457   -0.208259
 ---------------------------------------------------------------------

 Alpha  occ. eigenvalues --  -20.53731 -20.52947 -11.24348 -11.16529  -1.48001
 Alpha  occ. eigenvalues --   -1.24067  -1.02827  -0.79841  -0.70870  -0.67888
 Alpha  occ. eigenvalues --   -0.65170  -0.56448  -0.54957  -0.52532  -0.48353
 Alpha  occ. eigenvalues --   -0.36081
 Alpha virt. eigenvalues --    0.18687   0.23171   0.27631   0.32015   0.33588
 Alpha virt. eigenvalues --    0.35864   0.49621   0.57599   0.90247   0.97013
 Alpha virt. eigenvalues --    1.00289   1.06426   1.10891   1.12558   1.22459

 Mulliken charges:
               1
     1  C    0.159580
     2  C   -0.504499
     3  H    0.253858
     4  H    0.226242
     5  H    0.240952
     6  O   -0.410934
     7  O   -0.381065
     8  H    0.415865
 Sum of Mulliken charges =   0.00000

 Dipole moment (field-independent basis, Debye):
    X=              0.7436    Y=              1.1621    Z=             -1.4724  Tot=              2.0178
 Quadrupole moment (field-independent basis, Debye-Ang):
   XX=            -20.4889   YY=            -18.0676   ZZ=            -26.2511
   XY=             -2.1145   XZ=              2.0752   YZ=             -3.2052

 Normal termination of Gaussian 09 at Fri Apr 12 15:50:57 2019.
