 Gaussian 09, Revision D.01,
 Gaussian 09:  AS64L-G09RevD.01 24-Apr-2013

 --------------------------------------------------------------------
 #p hf 3-21g scf=tight NoSymmetry guess=read opt=(tight,modredundant)
 --------------------------------------------------------------------

 -----------------------------------
 Geometry optimization at the 2D-PES
 -----------------------------------
 Symbolic Z-matrix:
 Charge =  0 Multiplicity = 1

 SCF Done:  E(RHF) =  -226.382204690     A.U. after   13 cycles
 SCF Done:  E(RHF) =  -226.382211423     A.U. after   12 cycles
 SCF Done:  E(RHF) =  -226.382219731     A.U. after   11 cycles
 SCF Done:  E(RHF) =  -226.382219769     A.U. after    9 cycles
 SCF Done:  E(RHF) =  -226.382219773     A.U. after    7 cycles
 Optimization completed.
    -- Stationary point found.

                          Input orientation:
 ---------------------------------------------------------------------
 Center     Atomic      Atomic             Coordinates (Angstroms)
 Number     Number       Type             X           Y           Z
 ---------------------------------------------------------------------
      1          6           0        0.752514    0.621398    0.041461
      2          6           0        1.390015   -0.520213   -0.006266
      3          1           0        1.235265    1.578291    0.081400
      4          1           0        2.460587   -0.552839   -0.017397
      5          1           0        0.851898   -1.445096   -0.051323
      6          8           0       -0.656471    0.677775   -0.009088
      7          8           0       -1.199300    0.852208    1.354643
      8          1           0       -0.507231    1.349931    1.828829
 ---------------------------------------------------------------------

 Alpha  occ. eigenvalues --  -20.52825 -20.51902 -11.24770 -11.19265  -1.46364
 Alpha  occ. eigenvalues --   -1.23320  -1.04544  -0.81356  -0.70671  -0.68372
 Alpha  occ. eigenvalues --   -0.60231  -0.58877  -0.57705  -0.51325  -0.44550
 Alpha  occ. eigenvalues --   -0.39567
 Alpha virt. eigenvalues --    0.13780   0.26863   0.27115   0.29704   0.31595
 Alpha virt. eigenvalues --    0.35649   0.49344   0.55500   0.87430   0.96211
 Alpha virt. eigenvalues --    0.98363   1.06121   1.09238   1.10692   1.24774

 Mulliken charges:
               1
     1  C    0.068893
     2  C   -0.439482
     3  H    0.233452
     4  H    0.232503
     5  H    0.260483
     6  O   -0.377432
     7  O   -0.374289
     8  H    0.395870
 Sum of Mulliken charges =   0.00000

 Dipole moment (field-independent basis, Debye):
    X=              3.5085    Y=              0.5440    Z=              1.1003  Tot=              3.7170
 Quadrupole moment (field-independent basis, Debye-Ang):
   XX=            -25.1363   YY=            -19.9016   ZZ=            -22.4724
   XY=              1.6092   XZ=              1.3495   YZ=              3.0818

 Normal termination of Gaussian 09 at Fri Apr 12 16:34:12 2019.
