 Gaussian 09, Revision D.01,
 Gaussian 09:  AS64L-G09RevD.01 24-Apr-2013

 --------------------------------------------------------------------
 #p hf 3-21g scf=tight NoSymmetry guess=read opt=(tight,modredundant)
 --------------------------------------------------------------------

 -----------------------------------
 Geometry optimization at the 2D-PES
 -----------------------------------
 Symbolic Z-matrix:
 Charge =  0 Multiplicity = 1

 SCF Done:  E(RHF) =  -226.398333243     A.U. after   13 cycles
 SCF Done:  E(RHF) =  -226.398334773     A.U. after   11 cycles
 SCF Done:  E(RHF) =  -226.398337945     A.U. after   10 cycles
 SCF Done:  E(RHF) =  -226.398337968     A.U. after    8 cycles
 SCF Done:  E(RHF) =  -226.398337971     A.U. after    7 cycles
 Optimization completed.
    -- Stationary point found.

                          Input orientation:
 ---------------------------------------------------------------------
 Center     Atomic      Atomic             Coordinates (Angstroms)
 Number     Number       Type             X           Y           Z
 ---------------------------------------------------------------------
      1          6           0        0.732560    0.571047    0.039303
      2          6           0        1.420024   -0.538459   -0.050282
      3          1           0        1.166005    1.548056    0.099264
      4          1           0        2.489532   -0.499461   -0.056790
      5          1           0        0.944376   -1.492784   -0.099963
      6          8           0       -0.653753    0.710865    0.046485
      7          8           0       -1.271502   -0.608341    0.175955
      8          1           0       -2.096865   -0.441938   -0.308960
 ---------------------------------------------------------------------

 Alpha  occ. eigenvalues --  -20.53892 -20.52782 -11.24202 -11.15700  -1.47928
 Alpha  occ. eigenvalues --   -1.24103  -1.02749  -0.79113  -0.71627  -0.66416
 Alpha  occ. eigenvalues --   -0.64524  -0.59765  -0.53590  -0.51277  -0.48339
 Alpha  occ. eigenvalues --   -0.35528
 Alpha virt. eigenvalues --    0.19964   0.23123   0.28696   0.30427   0.34160
 Alpha virt. eigenvalues --    0.37438   0.50100   0.59143   0.89345   0.97333
 Alpha virt. eigenvalues --    1.01490   1.07602   1.10696   1.13006   1.22876

 Mulliken charges:
               1
     1  C    0.156273
     2  C   -0.507235
     3  H    0.257740
     4  H    0.218439
     5  H    0.253152
     6  O   -0.419947
     7  O   -0.381583
     8  H    0.423161
 Sum of Mulliken charges =   0.00000

 Dipole moment (field-independent basis, Debye):
    X=             -0.2086    Y=              0.1331    Z=             -1.0085  Tot=              1.0384
 Quadrupole moment (field-independent basis, Debye-Ang):
   XX=            -16.9934   YY=            -22.7476   ZZ=            -25.6301
   XY=              2.0725   XZ=              2.1442   YZ=              0.7842

 Normal termination of Gaussian 09 at Fri Apr 12 17:50:29 2019.
