 Gaussian 09, Revision D.01,
 Gaussian 09:  AS64L-G09RevD.01 24-Apr-2013

 --------------------------------------------------------------------
 #p hf 3-21g scf=tight NoSymmetry guess=read opt=(tight,modredundant)
 --------------------------------------------------------------------

 -----------------------------------
 Geometry optimization at the 2D-PES
 -----------------------------------
 Symbolic Z-matrix:
 Charge =  0 Multiplicity = 1

 SCF Done:  E(RHF) =  -226.394611058     A.U. after   13 cycles
 SCF Done:  E(RHF) =  -226.394620701     A.U. after   12 cycles
 SCF Done:  E(RHF) =  -226.394630206     A.U. after   11 cycles
 SCF Done:  E(RHF) =  -226.394630272     A.U. after    8 cycles
 SCF Done:  E(RHF) =  -226.394630276     A.U. after    8 cycles
 Optimization completed.
    -- Stationary point found.

                          Input orientation:
 ---------------------------------------------------------------------
 Center     Atomic      Atomic             Coordinates (Angstroms)
 Number     Number       Type             X           Y           Z
 ---------------------------------------------------------------------
      1          6           0        0.735977    0.585910    0.065533
      2          6           0        1.409741   -0.530967   -0.034836
      3          1           0        1.183887    1.557352    0.091866
      4          1           0        2.479591   -0.512553   -0.058027
      5          1           0        0.922655   -1.482820   -0.043896
      6          8           0       -0.660057    0.707465    0.043239
      7          8           0       -1.251831   -0.394000    0.807471
      8          1           0       -1.908448   -0.711589    0.164477
 ---------------------------------------------------------------------

 Alpha  occ. eigenvalues --  -20.53301 -20.52605 -11.24134 -11.16681  -1.47379
 Alpha  occ. eigenvalues --   -1.23697  -1.03178  -0.79140  -0.70154  -0.68844
 Alpha  occ. eigenvalues --   -0.64806  -0.57204  -0.53875  -0.52111  -0.47533
 Alpha  occ. eigenvalues --   -0.36414
 Alpha virt. eigenvalues --    0.17229   0.24917   0.29178   0.29977   0.32831
 Alpha virt. eigenvalues --    0.37250   0.49985   0.57798   0.88935   0.97069
 Alpha virt. eigenvalues --    1.00674   1.07020   1.10230   1.12842   1.22322

 Mulliken charges:
               1
     1  C    0.147829
     2  C   -0.485375
     3  H    0.254226
     4  H    0.224404
     5  H    0.237191
     6  O   -0.416072
     7  O   -0.378461
     8  H    0.416258
 Sum of Mulliken charges =   0.00000

 Dipole moment (field-independent basis, Debye):
    X=              0.3541    Y=             -0.9228    Z=             -1.1419  Tot=              1.5102
 Quadrupole moment (field-independent basis, Debye-Ang):
   XX=            -18.4569   YY=            -21.5875   ZZ=            -27.0098
   XY=              3.5915   XZ=              1.6006   YZ=              0.7125

 Normal termination of Gaussian 09 at Fri Apr 12 17:16:27 2019.
