 Gaussian 09, Revision D.01,
 Gaussian 09:  AS64L-G09RevD.01 24-Apr-2013

 --------------------------------------------------------------------
 #p hf 3-21g scf=tight NoSymmetry guess=read opt=(tight,modredundant)
 --------------------------------------------------------------------

 -----------------------------------
 Geometry optimization at the 2D-PES
 -----------------------------------
 Symbolic Z-matrix:
 Charge =  0 Multiplicity = 1

 SCF Done:  E(RHF) =  -226.396792493     A.U. after   13 cycles
 SCF Done:  E(RHF) =  -226.396800562     A.U. after   11 cycles
 SCF Done:  E(RHF) =  -226.396813007     A.U. after   10 cycles
 SCF Done:  E(RHF) =  -226.396813105     A.U. after    9 cycles
 SCF Done:  E(RHF) =  -226.396813111     A.U. after    8 cycles
 Optimization completed.
    -- Stationary point found.

                          Input orientation:
 ---------------------------------------------------------------------
 Center     Atomic      Atomic             Coordinates (Angstroms)
 Number     Number       Type             X           Y           Z
 ---------------------------------------------------------------------
      1          6           0        0.738870    0.569367    0.048312
      2          6           0        1.429880   -0.537163   -0.052813
      3          1           0        1.168899    1.548022    0.101238
      4          1           0        2.498876   -0.495750   -0.072395
      5          1           0        0.960727   -1.496114   -0.078552
      6          8           0       -0.651604    0.705326    0.053266
      7          8           0       -1.290147   -0.599375    0.163812
      8          1           0       -1.532783   -0.770492   -0.763695
 ---------------------------------------------------------------------

 Alpha  occ. eigenvalues --  -20.54322 -20.53280 -11.24732 -11.16425  -1.48550
 Alpha  occ. eigenvalues --   -1.24266  -1.03506  -0.79842  -0.70233  -0.69784
 Alpha  occ. eigenvalues --   -0.65056  -0.57094  -0.54208  -0.52502  -0.48861
 Alpha  occ. eigenvalues --   -0.36420
 Alpha virt. eigenvalues --    0.19360   0.22512   0.28684   0.29596   0.33338
 Alpha virt. eigenvalues --    0.37130   0.49571   0.58535   0.88723   0.96543
 Alpha virt. eigenvalues --    1.00952   1.06918   1.10063   1.11961   1.23434

 Mulliken charges:
               1
     1  C    0.147163
     2  C   -0.513172
     3  H    0.261645
     4  H    0.223692
     5  H    0.241145
     6  O   -0.404176
     7  O   -0.370925
     8  H    0.414628
 Sum of Mulliken charges =   0.00000

 Dipole moment (field-independent basis, Debye):
    X=              1.0484    Y=             -0.4945    Z=             -1.8925  Tot=              2.2193
 Quadrupole moment (field-independent basis, Debye-Ang):
   XX=            -21.7676   YY=            -21.8640   ZZ=            -24.4216
   XY=              2.6463   XZ=              3.2048   YZ=              1.7711

 Normal termination of Gaussian 09 at Fri Apr 12 17:51:28 2019.
