 Gaussian 09, Revision D.01,
 Gaussian 09:  AS64L-G09RevD.01 24-Apr-2013

 --------------------------------------------------------------------
 #p hf 3-21g scf=tight NoSymmetry guess=read opt=(tight,modredundant)
 --------------------------------------------------------------------

 -----------------------------------
 Geometry optimization at the 2D-PES
 -----------------------------------
 Symbolic Z-matrix:
 Charge =  0 Multiplicity = 1

 SCF Done:  E(RHF) =  -226.394836722     A.U. after   13 cycles
 SCF Done:  E(RHF) =  -226.394837328     A.U. after   10 cycles
 SCF Done:  E(RHF) =  -226.394837698     A.U. after   10 cycles
 SCF Done:  E(RHF) =  -226.394837707     A.U. after    7 cycles
 SCF Done:  E(RHF) =  -226.394837708     A.U. after    6 cycles
 Optimization completed.
    -- Stationary point found.

                          Input orientation:
 ---------------------------------------------------------------------
 Center     Atomic      Atomic             Coordinates (Angstroms)
 Number     Number       Type             X           Y           Z
 ---------------------------------------------------------------------
      1          6           0        0.723939    0.631885    0.048385
      2          6           0        1.367924   -0.506093    0.004553
      3          1           0        1.184852    1.592959    0.129233
      4          1           0        2.438341   -0.528610   -0.001030
      5          1           0        0.840983   -1.436811   -0.047322
      6          8           0       -0.677004    0.666426   -0.027641
      7          8           0       -1.120175    1.300065    1.230679
      8          1           0       -2.074224    1.128192    1.158650
 ---------------------------------------------------------------------

 Alpha  occ. eigenvalues --  -20.52631 -20.51689 -11.23809 -11.17349  -1.46400
 Alpha  occ. eigenvalues --   -1.23291  -1.02925  -0.79356  -0.69393  -0.68081
 Alpha  occ. eigenvalues --   -0.63683  -0.58348  -0.55762  -0.50688  -0.44901
 Alpha  occ. eigenvalues --   -0.37607
 Alpha virt. eigenvalues --    0.16418   0.26775   0.28712   0.31437   0.32319
 Alpha virt. eigenvalues --    0.36198   0.49561   0.57083   0.89532   0.97457
 Alpha virt. eigenvalues --    0.99490   1.07171   1.10506   1.12274   1.23880

 Mulliken charges:
               1
     1  C    0.156948
     2  C   -0.471758
     3  H    0.244421
     4  H    0.226963
     5  H    0.241664
     6  O   -0.420379
     7  O   -0.395669
     8  H    0.417810
 Sum of Mulliken charges =   0.00000

 Dipole moment (field-independent basis, Debye):
    X=             -0.0617    Y=             -0.3985    Z=              0.1243  Tot=              0.4219
 Quadrupole moment (field-independent basis, Debye-Ang):
   XX=            -16.1518   YY=            -22.9474   ZZ=            -26.0453
   XY=             -0.7081   XZ=             -2.4090   YZ=             -0.2202

 Normal termination of Gaussian 09 at Fri Apr 12 16:14:51 2019.
