 Gaussian 09, Revision D.01,
 Gaussian 09:  AS64L-G09RevD.01 24-Apr-2013

 --------------------------------------------------------------------
 #p hf 3-21g scf=tight NoSymmetry guess=read opt=(tight,modredundant)
 --------------------------------------------------------------------

 -----------------------------------
 Geometry optimization at the 2D-PES
 -----------------------------------
 Symbolic Z-matrix:
 Charge =  0 Multiplicity = 1

 SCF Done:  E(RHF) =  -226.380401470     A.U. after   13 cycles
 SCF Done:  E(RHF) =  -226.380416744     A.U. after   13 cycles
 SCF Done:  E(RHF) =  -226.380434927     A.U. after   12 cycles
 SCF Done:  E(RHF) =  -226.380435048     A.U. after    9 cycles
 SCF Done:  E(RHF) =  -226.380435071     A.U. after    8 cycles
 SCF Done:  E(RHF) =  -226.380435072     A.U. after    7 cycles
 Optimization completed.
    -- Stationary point found.

                          Input orientation:
 ---------------------------------------------------------------------
 Center     Atomic      Atomic             Coordinates (Angstroms)
 Number     Number       Type             X           Y           Z
 ---------------------------------------------------------------------
      1          6           0        0.764159    0.630817    0.047671
      2          6           0        1.382729   -0.521214   -0.000482
      3          1           0        1.276540    1.571144    0.101079
      4          1           0        2.451998   -0.562592   -0.001780
      5          1           0        0.837663   -1.441648   -0.042576
      6          8           0       -0.634644    0.699916   -0.002947
      7          8           0       -1.132867    2.044176    0.298251
      8          1           0       -0.429238    2.645224   -0.007719
 ---------------------------------------------------------------------

 Alpha  occ. eigenvalues --  -20.54207 -20.53371 -11.25878 -11.17576  -1.48173
 Alpha  occ. eigenvalues --   -1.24666  -1.04104  -0.82031  -0.71857  -0.67167
 Alpha  occ. eigenvalues --   -0.64451  -0.58270  -0.55418  -0.52797  -0.49231
 Alpha  occ. eigenvalues --   -0.36568
 Alpha virt. eigenvalues --    0.18034   0.21857   0.23573   0.31070   0.34090
 Alpha virt. eigenvalues --    0.35826   0.51454   0.56422   0.88872   0.95898
 Alpha virt. eigenvalues --    0.99115   1.05621   1.09932   1.11182   1.23218

 Mulliken charges:
               1
     1  C    0.131728
     2  C   -0.493264
     3  H    0.226289
     4  H    0.230408
     5  H    0.250268
     6  O   -0.384499
     7  O   -0.360025
     8  H    0.399094
 Sum of Mulliken charges =   0.00000

 Dipole moment (field-independent basis, Debye):
    X=              3.1799    Y=              1.3459    Z=             -0.5157  Tot=              3.4913
 Quadrupole moment (field-independent basis, Debye-Ang):
   XX=            -25.2116   YY=            -15.8854   ZZ=            -26.0008
   XY=              3.5628   XZ=              0.6858   YZ=             -1.0963

 Normal termination of Gaussian 09 at Fri Apr 12 15:44:27 2019.
