 Gaussian 09, Revision D.01,
 Gaussian 09:  AS64L-G09RevD.01 24-Apr-2013

 --------------------------------------------------------------------
 #p hf 3-21g scf=tight NoSymmetry guess=read opt=(tight,modredundant)
 --------------------------------------------------------------------

 -----------------------------------
 Geometry optimization at the 2D-PES
 -----------------------------------
 Symbolic Z-matrix:
 Charge =  0 Multiplicity = 1

 SCF Done:  E(RHF) =  -226.381220962     A.U. after   14 cycles
 SCF Done:  E(RHF) =  -226.381239070     A.U. after   13 cycles
 SCF Done:  E(RHF) =  -226.381251040     A.U. after   12 cycles
 SCF Done:  E(RHF) =  -226.381251251     A.U. after    8 cycles
 SCF Done:  E(RHF) =  -226.381251277     A.U. after    8 cycles
 SCF Done:  E(RHF) =  -226.381251279     A.U. after    6 cycles
 Optimization completed.
    -- Stationary point found.

                          Input orientation:
 ---------------------------------------------------------------------
 Center     Atomic      Atomic             Coordinates (Angstroms)
 Number     Number       Type             X           Y           Z
 ---------------------------------------------------------------------
      1          6           0        0.756775    0.624327    0.044783
      2          6           0        1.387309   -0.522067   -0.001649
      3          1           0        1.242482    1.579336    0.082610
      4          1           0        2.457526   -0.560184   -0.017573
      5          1           0        0.844098   -1.443983   -0.047879
      6          8           0       -0.649631    0.677126   -0.011038
      7          8           0       -1.193501    1.087753    1.303594
      8          1           0       -0.408511    1.214096    1.868313
 ---------------------------------------------------------------------

 Alpha  occ. eigenvalues --  -20.52976 -20.51906 -11.25066 -11.19478  -1.46404
 Alpha  occ. eigenvalues --   -1.23547  -1.04763  -0.81502  -0.71569  -0.67644
 Alpha  occ. eigenvalues --   -0.60495  -0.59332  -0.56654  -0.52676  -0.44551
 Alpha  occ. eigenvalues --   -0.39462
 Alpha virt. eigenvalues --    0.13727   0.26198   0.27538   0.29681   0.31283
 Alpha virt. eigenvalues --    0.35568   0.48984   0.55491   0.87428   0.96260
 Alpha virt. eigenvalues --    0.97998   1.05708   1.08909   1.11201   1.24365

 Mulliken charges:
               1
     1  C    0.064159
     2  C   -0.445558
     3  H    0.239985
     4  H    0.234194
     5  H    0.259498
     6  O   -0.374707
     7  O   -0.375775
     8  H    0.398205
 Sum of Mulliken charges =   0.00000

 Dipole moment (field-independent basis, Debye):
    X=              3.6827    Y=             -0.1361    Z=              1.2556  Tot=              3.8932
 Quadrupole moment (field-independent basis, Debye-Ang):
   XX=            -25.2691   YY=            -21.5516   ZZ=            -21.8515
   XY=              2.5896   XZ=              1.5428   YZ=              2.0657

 Normal termination of Gaussian 09 at Fri Apr 12 16:20:10 2019.
