 Gaussian 09, Revision D.01,
 Gaussian 09:  AS64L-G09RevD.01 24-Apr-2013

 --------------------------------------------------------------------
 #p hf 3-21g scf=tight NoSymmetry guess=read opt=(tight,modredundant)
 --------------------------------------------------------------------

 -----------------------------------
 Geometry optimization at the 2D-PES
 -----------------------------------
 Symbolic Z-matrix:
 Charge =  0 Multiplicity = 1

 SCF Done:  E(RHF) =  -226.386888574     A.U. after   13 cycles
 SCF Done:  E(RHF) =  -226.386904811     A.U. after   12 cycles
 SCF Done:  E(RHF) =  -226.386916677     A.U. after   11 cycles
 SCF Done:  E(RHF) =  -226.386916788     A.U. after    9 cycles
 SCF Done:  E(RHF) =  -226.386916798     A.U. after    7 cycles
 SCF Done:  E(RHF) =  -226.386916800     A.U. after    7 cycles
 Optimization completed.
    -- Stationary point found.

                          Input orientation:
 ---------------------------------------------------------------------
 Center     Atomic      Atomic             Coordinates (Angstroms)
 Number     Number       Type             X           Y           Z
 ---------------------------------------------------------------------
      1          6           0        0.747471    0.628127    0.053098
      2          6           0        1.381338   -0.514310    0.001837
      3          1           0        1.234283    1.583020    0.096452
      4          1           0        2.451244   -0.549417   -0.022804
      5          1           0        0.840213   -1.437447   -0.033938
      6          8           0       -0.657332    0.681508   -0.016919
      7          8           0       -1.168744    1.304249    1.213065
      8          1           0       -0.756202    2.188329    1.204159
 ---------------------------------------------------------------------

 Alpha  occ. eigenvalues --  -20.53323 -20.52368 -11.24737 -11.18363  -1.47158
 Alpha  occ. eigenvalues --   -1.23615  -1.03972  -0.81103  -0.70047  -0.68853
 Alpha  occ. eigenvalues --   -0.63258  -0.57331  -0.57132  -0.49933  -0.47088
 Alpha  occ. eigenvalues --   -0.38406
 Alpha virt. eigenvalues --    0.15520   0.24959   0.26442   0.30711   0.33260
 Alpha virt. eigenvalues --    0.35304   0.49708   0.56169   0.88555   0.96339
 Alpha virt. eigenvalues --    0.98876   1.05933   1.09752   1.10803   1.25265

 Mulliken charges:
               1
     1  C    0.114136
     2  C   -0.458614
     3  H    0.221038
     4  H    0.229798
     5  H    0.255343
     6  O   -0.385250
     7  O   -0.372688
     8  H    0.396236
 Sum of Mulliken charges =   0.00000

 Dipole moment (field-independent basis, Debye):
    X=              2.8180    Y=              1.4966    Z=              0.1721  Tot=              3.1954
 Quadrupole moment (field-independent basis, Debye-Ang):
   XX=            -24.5355   YY=            -15.6168   ZZ=            -25.7876
   XY=              0.6726   XZ=              0.8886   YZ=              2.5243

 Normal termination of Gaussian 09 at Fri Apr 12 16:18:24 2019.
