 Gaussian 09, Revision D.01,
 Gaussian 09:  AS64L-G09RevD.01 24-Apr-2013

 --------------------------------------------------------------------
 #p hf 3-21g scf=tight NoSymmetry guess=read opt=(tight,modredundant)
 --------------------------------------------------------------------

 -----------------------------------
 Geometry optimization at the 2D-PES
 -----------------------------------
 Symbolic Z-matrix:
 Charge =  0 Multiplicity = 1

 SCF Done:  E(RHF) =  -226.395840162     A.U. after   13 cycles
 SCF Done:  E(RHF) =  -226.395840333     A.U. after   10 cycles
 SCF Done:  E(RHF) =  -226.395840430     A.U. after    9 cycles
 SCF Done:  E(RHF) =  -226.395840434     A.U. after    7 cycles
 Optimization completed.
    -- Stationary point found.

                          Input orientation:
 ---------------------------------------------------------------------
 Center     Atomic      Atomic             Coordinates (Angstroms)
 Number     Number       Type             X           Y           Z
 ---------------------------------------------------------------------
      1          6           0        0.718626    0.633825    0.040628
      2          6           0        1.366640   -0.503047   -0.011413
      3          1           0        1.172826    1.598819    0.094388
      4          1           0        2.436588   -0.512543   -0.001228
      5          1           0        0.853071   -1.441212   -0.063746
      6          8           0       -0.678554    0.668832    0.027976
      7          8           0       -1.052592    2.085708    0.097321
      8          1           0       -2.003557    2.004805   -0.083425
 ---------------------------------------------------------------------

 Alpha  occ. eigenvalues --  -20.53637 -20.52803 -11.24292 -11.16071  -1.47786
 Alpha  occ. eigenvalues --   -1.24167  -1.02503  -0.79867  -0.70555  -0.67107
 Alpha  occ. eigenvalues --   -0.63912  -0.59857  -0.55250  -0.50532  -0.48747
 Alpha  occ. eigenvalues --   -0.35387
 Alpha virt. eigenvalues --    0.19836   0.22418   0.27542   0.32278   0.34258
 Alpha virt. eigenvalues --    0.36078   0.50285   0.57906   0.90408   0.97427
 Alpha virt. eigenvalues --    1.00259   1.07099   1.11037   1.12313   1.23278

 Mulliken charges:
               1
     1  C    0.174421
     2  C   -0.514608
     3  H    0.266575
     4  H    0.225526
     5  H    0.235227
     6  O   -0.422593
     7  O   -0.388969
     8  H    0.424421
 Sum of Mulliken charges =   0.00000

 Dipole moment (field-independent basis, Debye):
    X=             -0.3553    Y=              0.3671    Z=             -0.3527  Tot=              0.6208
 Quadrupole moment (field-independent basis, Debye-Ang):
   XX=            -16.6472   YY=            -22.1891   ZZ=            -25.8229
   XY=             -2.7264   XZ=              0.7514   YZ=             -0.5981

 Normal termination of Gaussian 09 at Fri Apr 12 15:38:23 2019.
