 Gaussian 09, Revision D.01,
 Gaussian 09:  AS64L-G09RevD.01 24-Apr-2013

 --------------------------------------------------------------------
 #p hf 3-21g scf=tight NoSymmetry guess=read opt=(tight,modredundant)
 --------------------------------------------------------------------

 -----------------------------------
 Geometry optimization at the 2D-PES
 -----------------------------------
 Symbolic Z-matrix:
 Charge =  0 Multiplicity = 1

 SCF Done:  E(RHF) =  -226.385213644     A.U. after   13 cycles
 SCF Done:  E(RHF) =  -226.385238787     A.U. after   13 cycles
 SCF Done:  E(RHF) =  -226.385303763     A.U. after   12 cycles
 SCF Done:  E(RHF) =  -226.385304102     A.U. after   10 cycles
 SCF Done:  E(RHF) =  -226.385304132     A.U. after    9 cycles
 SCF Done:  E(RHF) =  -226.385304139     A.U. after    7 cycles
 Optimization completed.
    -- Stationary point found.

                          Input orientation:
 ---------------------------------------------------------------------
 Center     Atomic      Atomic             Coordinates (Angstroms)
 Number     Number       Type             X           Y           Z
 ---------------------------------------------------------------------
      1          6           0        0.746686    0.562894    0.070477
      2          6           0        1.456442   -0.533226   -0.040296
      3          1           0        1.183927    1.539215    0.090927
      4          1           0        2.523527   -0.466342   -0.076386
      5          1           0        1.044088   -1.521161   -0.060504
      6          8           0       -0.642716    0.699427    0.060277
      7          8           0       -1.347299   -0.464662    0.589221
      8          1           0       -0.954388   -1.216454    0.112973
 ---------------------------------------------------------------------

 Alpha  occ. eigenvalues --  -20.54453 -20.53343 -11.25960 -11.18219  -1.48477
 Alpha  occ. eigenvalues --   -1.24672  -1.05031  -0.80980  -0.73002  -0.67819
 Alpha  occ. eigenvalues --   -0.65585  -0.58121  -0.54692  -0.53033  -0.48876
 Alpha  occ. eigenvalues --   -0.37572
 Alpha virt. eigenvalues --    0.16962   0.21593   0.27313   0.27903   0.35762
 Alpha virt. eigenvalues --    0.36771   0.49661   0.59252   0.88038   0.95626
 Alpha virt. eigenvalues --    0.99787   1.05604   1.08470   1.10964   1.25005

 Mulliken charges:
               1
     1  C    0.147697
     2  C   -0.518351
     3  H    0.268615
     4  H    0.239843
     5  H    0.206421
     6  O   -0.393326
     7  O   -0.362218
     8  H    0.411319
 Sum of Mulliken charges =   0.00000

 Dipole moment (field-independent basis, Debye):
    X=              2.4623    Y=             -1.5191    Z=             -0.8142  Tot=              3.0056
 Quadrupole moment (field-independent basis, Debye-Ang):
   XX=            -24.7785   YY=            -19.6026   ZZ=            -26.4692
   XY=              2.8760   XZ=              1.3915   YZ=              0.5753

 Normal termination of Gaussian 09 at Fri Apr 12 17:31:28 2019.
