 Gaussian 09, Revision D.01,
 Gaussian 09:  AS64L-G09RevD.01 24-Apr-2013

 --------------------------------------------------------------------
 #p hf 3-21g scf=tight NoSymmetry guess=read opt=(tight,modredundant)
 --------------------------------------------------------------------

 -----------------------------------
 Geometry optimization at the 2D-PES
 -----------------------------------
 Symbolic Z-matrix:
 Charge =  0 Multiplicity = 1

 SCF Done:  E(RHF) =  -226.387805220     A.U. after   12 cycles
 SCF Done:  E(RHF) =  -226.387835600     A.U. after   12 cycles
 SCF Done:  E(RHF) =  -226.387931704     A.U. after   12 cycles
 SCF Done:  E(RHF) =  -226.387932043     A.U. after   10 cycles
 SCF Done:  E(RHF) =  -226.387932205     A.U. after    9 cycles
 SCF Done:  E(RHF) =  -226.387932212     A.U. after    7 cycles
 SCF Done:  E(RHF) =  -226.387932213     A.U. after    6 cycles
 Optimization completed.
    -- Stationary point found.

                          Input orientation:
 ---------------------------------------------------------------------
 Center     Atomic      Atomic             Coordinates (Angstroms)
 Number     Number       Type             X           Y           Z
 ---------------------------------------------------------------------
      1          6           0        0.744620    0.561670    0.054437
      2          6           0        1.455485   -0.534957   -0.057177
      3          1           0        1.172626    1.540799    0.107040
      4          1           0        2.522389   -0.467807   -0.090448
      5          1           0        1.034536   -1.518480   -0.057268
      6          8           0       -0.638735    0.697094    0.059028
      7          8           0       -1.342266   -0.572318   -0.081009
      8          1           0       -0.814298   -1.058900   -0.741557
 ---------------------------------------------------------------------

 Alpha  occ. eigenvalues --  -20.54988 -20.53555 -11.26292 -11.17929  -1.49060
 Alpha  occ. eigenvalues --   -1.24960  -1.05092  -0.81277  -0.72955  -0.68436
 Alpha  occ. eigenvalues --   -0.65281  -0.57696  -0.55072  -0.53954  -0.49164
 Alpha  occ. eigenvalues --   -0.37375
 Alpha virt. eigenvalues --    0.18287   0.21411   0.27423   0.28192   0.34055
 Alpha virt. eigenvalues --    0.36646   0.49200   0.58882   0.87941   0.95806
 Alpha virt. eigenvalues --    1.00669   1.05577   1.08269   1.11036   1.24110

 Mulliken charges:
               1
     1  C    0.149688
     2  C   -0.541385
     3  H    0.272476
     4  H    0.237415
     5  H    0.221070
     6  O   -0.389541
     7  O   -0.361753
     8  H    0.412030
 Sum of Mulliken charges =   0.00000

 Dipole moment (field-independent basis, Debye):
    X=              2.6384    Y=             -0.9137    Z=             -1.2861  Tot=              3.0741
 Quadrupole moment (field-independent basis, Debye-Ang):
   XX=            -25.4205   YY=            -20.5980   ZZ=            -24.6256
   XY=              2.0008   XZ=              1.1544   YZ=              1.8220

 Normal termination of Gaussian 09 at Fri Apr 12 17:55:07 2019.
