 Gaussian 09, Revision D.01,
 Gaussian 09:  AS64L-G09RevD.01 24-Apr-2013

 ---------------------------------------------------------
 #p hf 3-21g scf=tight NoSymmetry opt=(tight,modredundant)
 ---------------------------------------------------------

 -----------------------------------
 Geometry optimization at the 2D-PES
 -----------------------------------
 Symbolic Z-matrix:
 Charge =  0 Multiplicity = 1

 SCF Done:  E(RHF) =  -226.376312755     A.U. after   14 cycles
 SCF Done:  E(RHF) =  -226.382937974     A.U. after   14 cycles
 SCF Done:  E(RHF) =  -226.384617786     A.U. after   13 cycles
 SCF Done:  E(RHF) =  -226.384680268     A.U. after   11 cycles
 SCF Done:  E(RHF) =  -226.384688043     A.U. after   10 cycles
 SCF Done:  E(RHF) =  -226.384688752     A.U. after   10 cycles
 SCF Done:  E(RHF) =  -226.384688823     A.U. after    9 cycles
 SCF Done:  E(RHF) =  -226.384688826     A.U. after    7 cycles
 Optimization completed.
    -- Stationary point found.

                          Input orientation:
 ---------------------------------------------------------------------
 Center     Atomic      Atomic             Coordinates (Angstroms)
 Number     Number       Type             X           Y           Z
 ---------------------------------------------------------------------
      1          6           0        0.733288    0.603915    0.018901
      2          6           0        1.406873   -0.519371    0.004199
      3          1           0        1.194899    1.566922    0.079222
      4          1           0        2.476419   -0.507432    0.041241
      5          1           0        0.934176   -1.481678   -0.030593
      6          8           0       -0.673422    0.691280    0.000977
      7          8           0       -1.225483    0.066083   -1.206942
      8          1           0       -0.920637   -0.855226   -1.139025
 ---------------------------------------------------------------------

 Alpha  occ. eigenvalues --  -20.53246 -20.52610 -11.25314 -11.18933  -1.47259
 Alpha  occ. eigenvalues --   -1.23674  -1.04950  -0.80527  -0.72627  -0.66769
 Alpha  occ. eigenvalues --   -0.64787  -0.58836  -0.55684  -0.50784  -0.47165
 Alpha  occ. eigenvalues --   -0.38677
 Alpha virt. eigenvalues --    0.14833   0.22746   0.28036   0.29098   0.33919
 Alpha virt. eigenvalues --    0.36559   0.50165   0.56474   0.87753   0.95771
 Alpha virt. eigenvalues --    0.98967   1.05505   1.08674   1.10823   1.25186

 Mulliken charges:
               1
     1  C    0.132810
     2  C   -0.489845
     3  H    0.256816
     4  H    0.240067
     5  H    0.218578
     6  O   -0.395382
     7  O   -0.366323
     8  H    0.403278
 Sum of Mulliken charges =   0.00000

 Dipole moment (field-independent basis, Debye):
    X=              2.5725    Y=             -1.9626    Z=             -0.0289  Tot=              3.2358
 Quadrupole moment (field-independent basis, Debye-Ang):
   XX=            -24.1877   YY=            -20.5586   ZZ=            -25.9995
   XY=              3.2625   XZ=             -0.5804   YZ=              2.2557

 Normal termination of Gaussian 09 at Fri Apr 12 14:50:55 2019.
