 Gaussian 09, Revision D.01,
 Gaussian 09:  AS64L-G09RevD.01 24-Apr-2013

 --------------------------------------------------------------------
 #p hf 3-21g scf=tight NoSymmetry guess=read opt=(tight,modredundant)
 --------------------------------------------------------------------

 -----------------------------------
 Geometry optimization at the 2D-PES
 -----------------------------------
 Symbolic Z-matrix:
 Charge =  0 Multiplicity = 1

 SCF Done:  E(RHF) =  -226.397230065     A.U. after   13 cycles
 SCF Done:  E(RHF) =  -226.397237813     A.U. after   11 cycles
 SCF Done:  E(RHF) =  -226.397247894     A.U. after   10 cycles
 SCF Done:  E(RHF) =  -226.397248003     A.U. after    9 cycles
 SCF Done:  E(RHF) =  -226.397248012     A.U. after    8 cycles
 SCF Done:  E(RHF) =  -226.397248013     A.U. after    6 cycles
 Optimization completed.
    -- Stationary point found.

                          Input orientation:
 ---------------------------------------------------------------------
 Center     Atomic      Atomic             Coordinates (Angstroms)
 Number     Number       Type             X           Y           Z
 ---------------------------------------------------------------------
      1          6           0        0.740038    0.572059    0.026668
      2          6           0        1.431887   -0.535641   -0.051656
      3          1           0        1.168250    1.550795    0.093056
      4          1           0        2.501140   -0.495056   -0.049177
      5          1           0        0.959638   -1.489064   -0.140737
      6          8           0       -0.650837    0.706038    0.046816
      7          8           0       -1.287547   -0.601721   -0.033796
      8          1           0       -1.510918   -0.759048    0.900831
 ---------------------------------------------------------------------

 Alpha  occ. eigenvalues --  -20.54323 -20.53247 -11.24678 -11.16325  -1.48544
 Alpha  occ. eigenvalues --   -1.24229  -1.03436  -0.79867  -0.70368  -0.69420
 Alpha  occ. eigenvalues --   -0.64791  -0.57585  -0.54543  -0.51835  -0.48868
 Alpha  occ. eigenvalues --   -0.36372
 Alpha virt. eigenvalues --    0.19663   0.22388   0.28665   0.29652   0.33460
 Alpha virt. eigenvalues --    0.37159   0.49563   0.58664   0.88735   0.96535
 Alpha virt. eigenvalues --    1.01240   1.06975   1.10140   1.11980   1.23229

 Mulliken charges:
               1
     1  C    0.143519
     2  C   -0.513373
     3  H    0.261034
     4  H    0.222567
     5  H    0.246807
     6  O   -0.403627
     7  O   -0.371959
     8  H    0.415032
 Sum of Mulliken charges =   0.00000

 Dipole moment (field-independent basis, Debye):
    X=              1.0848    Y=             -0.4800    Z=              1.9375  Tot=              2.2719
 Quadrupole moment (field-independent basis, Debye-Ang):
   XX=            -21.9289   YY=            -21.8975   ZZ=            -23.8571
   XY=              2.5500   XZ=             -3.1102   YZ=             -1.3465

 Normal termination of Gaussian 09 at Fri Apr 12 18:01:31 2019.
