 Gaussian 09, Revision D.01,
 Gaussian 09:  AS64L-G09RevD.01 24-Apr-2013

 --------------------------------------------------------------------
 #p hf 3-21g scf=tight NoSymmetry guess=read opt=(tight,modredundant)
 --------------------------------------------------------------------

 -----------------------------------
 Geometry optimization at the 2D-PES
 -----------------------------------
 Symbolic Z-matrix:
 Charge =  0 Multiplicity = 1

 SCF Done:  E(RHF) =  -226.393928716     A.U. after   12 cycles
 SCF Done:  E(RHF) =  -226.393944660     A.U. after   13 cycles
 SCF Done:  E(RHF) =  -226.393974879     A.U. after   12 cycles
 SCF Done:  E(RHF) =  -226.393975302     A.U. after   10 cycles
 SCF Done:  E(RHF) =  -226.393975372     A.U. after    9 cycles
 SCF Done:  E(RHF) =  -226.393975375     A.U. after    8 cycles
 SCF Done:  E(RHF) =  -226.393975376     A.U. after    6 cycles
 Optimization completed.
    -- Stationary point found.

                          Input orientation:
 ---------------------------------------------------------------------
 Center     Atomic      Atomic             Coordinates (Angstroms)
 Number     Number       Type             X           Y           Z
 ---------------------------------------------------------------------
      1          6           0        0.741833    0.570330    0.045165
      2          6           0        1.437073   -0.534577   -0.060152
      3          1           0        1.170321    1.548944    0.106062
      4          1           0        2.505565   -0.488624   -0.084548
      5          1           0        0.977909   -1.499197   -0.080261
      6          8           0       -0.647514    0.701304    0.057992
      7          8           0       -1.301397   -0.593588   -0.065059
      8          1           0       -1.104165   -0.840545   -0.988749
 ---------------------------------------------------------------------

 Alpha  occ. eigenvalues --  -20.54696 -20.53528 -11.25393 -11.17113  -1.48936
 Alpha  occ. eigenvalues --   -1.24505  -1.04237  -0.80586  -0.71340  -0.69244
 Alpha  occ. eigenvalues --   -0.65248  -0.56874  -0.55288  -0.52894  -0.48998
 Alpha  occ. eigenvalues --   -0.37021
 Alpha virt. eigenvalues --    0.18949   0.21983   0.28210   0.29030   0.32975
 Alpha virt. eigenvalues --    0.36828   0.49371   0.58251   0.88230   0.96408
 Alpha virt. eigenvalues --    0.99970   1.06184   1.09290   1.11183   1.24717

 Mulliken charges:
               1
     1  C    0.141732
     2  C   -0.524950
     3  H    0.266424
     4  H    0.228937
     5  H    0.236413
     6  O   -0.393537
     7  O   -0.364297
     8  H    0.409277
 Sum of Mulliken charges =   0.00000

 Dipole moment (field-independent basis, Debye):
    X=              1.9672    Y=             -0.5504    Z=             -1.8746  Tot=              2.7726
 Quadrupole moment (field-independent basis, Debye-Ang):
   XX=            -24.2096   YY=            -21.5767   ZZ=            -23.5745
   XY=              2.0774   XZ=              2.3099   YZ=              1.9676

 Normal termination of Gaussian 09 at Fri Apr 12 17:56:33 2019.
