 Gaussian 09, Revision D.01,
 Gaussian 09:  AS64L-G09RevD.01 24-Apr-2013

 --------------------------------------------------------------------
 #p hf 3-21g scf=tight NoSymmetry guess=read opt=(tight,modredundant)
 --------------------------------------------------------------------

 -----------------------------------
 Geometry optimization at the 2D-PES
 -----------------------------------
 Symbolic Z-matrix:
 Charge =  0 Multiplicity = 1

 SCF Done:  E(RHF) =  -226.381284505     A.U. after   13 cycles
 SCF Done:  E(RHF) =  -226.381287629     A.U. after   12 cycles
 SCF Done:  E(RHF) =  -226.381289368     A.U. after   11 cycles
 SCF Done:  E(RHF) =  -226.381289399     A.U. after    7 cycles
 SCF Done:  E(RHF) =  -226.381289401     A.U. after    6 cycles
 Optimization completed.
    -- Stationary point found.

                          Input orientation:
 ---------------------------------------------------------------------
 Center     Atomic      Atomic             Coordinates (Angstroms)
 Number     Number       Type             X           Y           Z
 ---------------------------------------------------------------------
      1          6           0        0.752484    0.618558    0.037682
      2          6           0        1.392241   -0.522740   -0.009682
      3          1           0        1.232537    1.575750    0.080502
      4          1           0        2.462996   -0.552765   -0.010785
      5          1           0        0.857484   -1.449538   -0.061742
      6          8           0       -0.657676    0.677763   -0.005549
      7          8           0       -1.211130    0.615712    1.365858
      8          1           0       -0.465973    0.874620    1.939420
 ---------------------------------------------------------------------

 Alpha  occ. eigenvalues --  -20.52670 -20.51795 -11.24846 -11.19516  -1.46179
 Alpha  occ. eigenvalues --   -1.23238  -1.04774  -0.81304  -0.70980  -0.68163
 Alpha  occ. eigenvalues --   -0.59395  -0.59094  -0.58023  -0.51847  -0.43976
 Alpha  occ. eigenvalues --   -0.39904
 Alpha virt. eigenvalues --    0.13461   0.26987   0.27524   0.29274   0.31012
 Alpha virt. eigenvalues --    0.36025   0.49307   0.55274   0.87188   0.96447
 Alpha virt. eigenvalues --    0.97766   1.05583   1.08823   1.10971   1.24505

 Mulliken charges:
               1
     1  C    0.059156
     2  C   -0.438540
     3  H    0.239701
     4  H    0.233866
     5  H    0.261073
     6  O   -0.377356
     7  O   -0.374670
     8  H    0.396770
 Sum of Mulliken charges =   0.00000

 Dipole moment (field-independent basis, Debye):
    X=              3.6424    Y=              0.0578    Z=              1.2925  Tot=              3.8654
 Quadrupole moment (field-independent basis, Debye-Ang):
   XX=            -25.2480   YY=            -21.3911   ZZ=            -21.6033
   XY=              1.6328   XZ=              1.4882   YZ=              2.1086

 Normal termination of Gaussian 09 at Fri Apr 12 16:35:29 2019.
