 Gaussian 09, Revision D.01,
 Gaussian 09:  AS64L-G09RevD.01 24-Apr-2013

 --------------------------------------------------------------------
 #p hf 3-21g scf=tight NoSymmetry guess=read opt=(tight,modredundant)
 --------------------------------------------------------------------

 -----------------------------------
 Geometry optimization at the 2D-PES
 -----------------------------------
 Symbolic Z-matrix:
 Charge =  0 Multiplicity = 1

 SCF Done:  E(RHF) =  -226.384791791     A.U. after   13 cycles
 SCF Done:  E(RHF) =  -226.384813453     A.U. after   12 cycles
 SCF Done:  E(RHF) =  -226.384837727     A.U. after   12 cycles
 SCF Done:  E(RHF) =  -226.384837799     A.U. after    9 cycles
 SCF Done:  E(RHF) =  -226.384837816     A.U. after    8 cycles
 Optimization completed.
    -- Stationary point found.

                          Input orientation:
 ---------------------------------------------------------------------
 Center     Atomic      Atomic             Coordinates (Angstroms)
 Number     Number       Type             X           Y           Z
 ---------------------------------------------------------------------
      1          6           0        0.744284    0.584424    0.058782
      2          6           0        1.430702   -0.527544   -0.030300
      3          1           0        1.199301    1.551970    0.093670
      4          1           0        2.500223   -0.495425   -0.043759
      5          1           0        0.980016   -1.498621   -0.085853
      6          8           0       -0.656886    0.694579    0.038786
      7          8           0       -1.294410   -0.225123    0.983679
      8          1           0       -1.004847   -1.101633    0.677724
 ---------------------------------------------------------------------

 Alpha  occ. eigenvalues --  -20.53601 -20.52882 -11.25457 -11.18632  -1.47642
 Alpha  occ. eigenvalues --   -1.23984  -1.04920  -0.80585  -0.72678  -0.67122
 Alpha  occ. eigenvalues --   -0.65292  -0.58492  -0.55327  -0.51297  -0.47913
 Alpha  occ. eigenvalues --   -0.38175
 Alpha virt. eigenvalues --    0.15472   0.22244   0.27869   0.28622   0.34880
 Alpha virt. eigenvalues --    0.36693   0.50155   0.57502   0.87881   0.95743
 Alpha virt. eigenvalues --    0.99027   1.05591   1.08710   1.10918   1.25294

 Mulliken charges:
               1
     1  C    0.139240
     2  C   -0.496918
     3  H    0.260905
     4  H    0.239886
     5  H    0.211308
     6  O   -0.396217
     7  O   -0.364315
     8  H    0.406111
 Sum of Mulliken charges =   0.00000

 Dipole moment (field-independent basis, Debye):
    X=              2.4386    Y=             -1.8671    Z=             -0.4054  Tot=              3.0979
 Quadrupole moment (field-independent basis, Debye-Ang):
   XX=            -24.1810   YY=            -19.7424   ZZ=            -26.7596
   XY=              3.2896   XZ=              1.1401   YZ=             -0.7611

 Normal termination of Gaussian 09 at Fri Apr 12 17:13:50 2019.
