 Gaussian 09, Revision D.01,
 Gaussian 09:  AS64L-G09RevD.01 24-Apr-2013

 --------------------------------------------------------------------
 #p hf 3-21g scf=tight NoSymmetry guess=read opt=(tight,modredundant)
 --------------------------------------------------------------------

 -----------------------------------
 Geometry optimization at the 2D-PES
 -----------------------------------
 Symbolic Z-matrix:
 Charge =  0 Multiplicity = 1

 SCF Done:  E(RHF) =  -226.395701536     A.U. after   13 cycles
 SCF Done:  E(RHF) =  -226.395706597     A.U. after   11 cycles
 SCF Done:  E(RHF) =  -226.395711054     A.U. after   10 cycles
 SCF Done:  E(RHF) =  -226.395711117     A.U. after    8 cycles
 SCF Done:  E(RHF) =  -226.395711122     A.U. after    7 cycles
 Optimization completed.
    -- Stationary point found.

                          Input orientation:
 ---------------------------------------------------------------------
 Center     Atomic      Atomic             Coordinates (Angstroms)
 Number     Number       Type             X           Y           Z
 ---------------------------------------------------------------------
      1          6           0        0.723521    0.635556    0.031329
      2          6           0        1.368005   -0.503399   -0.013993
      3          1           0        1.179065    1.599421    0.090264
      4          1           0        2.437613   -0.517835    0.015753
      5          1           0        0.851054   -1.439382   -0.072768
      6          8           0       -0.676120    0.670801    0.034793
      7          8           0       -1.060436    2.072041   -0.154048
      8          1           0       -1.815180    1.956469   -0.755084
 ---------------------------------------------------------------------

 Alpha  occ. eigenvalues --  -20.53684 -20.52866 -11.24316 -11.16267  -1.47891
 Alpha  occ. eigenvalues --   -1.24120  -1.02653  -0.79821  -0.71134  -0.66862
 Alpha  occ. eigenvalues --   -0.64001  -0.59676  -0.55240  -0.50401  -0.48766
 Alpha  occ. eigenvalues --   -0.35759
 Alpha virt. eigenvalues --    0.19456   0.22580   0.27589   0.32106   0.34129
 Alpha virt. eigenvalues --    0.35990   0.50010   0.57790   0.90413   0.97195
 Alpha virt. eigenvalues --    1.00361   1.06763   1.10996   1.12800   1.22115

 Mulliken charges:
               1
     1  C    0.166364
     2  C   -0.511989
     3  H    0.264876
     4  H    0.226125
     5  H    0.236257
     6  O   -0.417094
     7  O   -0.386177
     8  H    0.421638
 Sum of Mulliken charges =   0.00000

 Dipole moment (field-independent basis, Debye):
    X=              0.0918    Y=              0.2531    Z=             -1.3301  Tot=              1.3570
 Quadrupole moment (field-independent basis, Debye-Ang):
   XX=            -18.3743   YY=            -22.5338   ZZ=            -24.5038
   XY=             -1.6736   XZ=              3.0465   YZ=             -2.4299

 Normal termination of Gaussian 09 at Fri Apr 12 15:37:03 2019.
