 Gaussian 09, Revision D.01,
 Gaussian 09:  AS64L-G09RevD.01 24-Apr-2013

 --------------------------------------------------------------------
 #p hf 3-21g scf=tight NoSymmetry guess=read opt=(tight,modredundant)
 --------------------------------------------------------------------

 -----------------------------------
 Geometry optimization at the 2D-PES
 -----------------------------------
 Symbolic Z-matrix:
 Charge =  0 Multiplicity = 1

 SCF Done:  E(RHF) =  -226.385064324     A.U. after   13 cycles
 SCF Done:  E(RHF) =  -226.385085069     A.U. after   12 cycles
 SCF Done:  E(RHF) =  -226.385104957     A.U. after   12 cycles
 SCF Done:  E(RHF) =  -226.385105081     A.U. after    9 cycles
 SCF Done:  E(RHF) =  -226.385105106     A.U. after    8 cycles
 SCF Done:  E(RHF) =  -226.385105107     A.U. after    7 cycles
 Optimization completed.
    -- Stationary point found.

                          Input orientation:
 ---------------------------------------------------------------------
 Center     Atomic      Atomic             Coordinates (Angstroms)
 Number     Number       Type             X           Y           Z
 ---------------------------------------------------------------------
      1          6           0        0.755421    0.630783    0.061062
      2          6           0        1.381282   -0.516080    0.002266
      3          1           0        1.253712    1.580419    0.089410
      4          1           0        2.450302   -0.554883   -0.036654
      5          1           0        0.836691   -1.437462   -0.022244
      6          8           0       -0.644837    0.692772   -0.014011
      7          8           0       -1.153874    1.694217    0.930614
      8          1           0       -0.614189    2.484885    0.742817
 ---------------------------------------------------------------------

 Alpha  occ. eigenvalues --  -20.53823 -20.52805 -11.25252 -11.18048  -1.47700
 Alpha  occ. eigenvalues --   -1.24120  -1.04023  -0.81530  -0.70833  -0.68339
 Alpha  occ. eigenvalues --   -0.63854  -0.57555  -0.56441  -0.51277  -0.48083
 Alpha  occ. eigenvalues --   -0.37573
 Alpha virt. eigenvalues --    0.16536   0.23779   0.24913   0.30918   0.34085
 Alpha virt. eigenvalues --    0.35247   0.50384   0.56310   0.88881   0.96087
 Alpha virt. eigenvalues --    0.99115   1.05684   1.09892   1.10974   1.24426

 Mulliken charges:
               1
     1  C    0.126387
     2  C   -0.475468
     3  H    0.220595
     4  H    0.230213
     5  H    0.253128
     6  O   -0.384189
     7  O   -0.367526
     8  H    0.396860
 Sum of Mulliken charges =   0.00000

 Dipole moment (field-independent basis, Debye):
    X=              2.9648    Y=              1.4674    Z=             -0.2106  Tot=              3.3148
 Quadrupole moment (field-independent basis, Debye-Ang):
   XX=            -24.8838   YY=            -15.1049   ZZ=            -26.4287
   XY=              1.9084   XZ=              1.0742   YZ=              0.8385

 Normal termination of Gaussian 09 at Fri Apr 12 16:05:10 2019.
