 Gaussian 09, Revision D.01,
 Gaussian 09:  AS64L-G09RevD.01 24-Apr-2013

 --------------------------------------------------------------------
 #p hf 3-21g scf=tight NoSymmetry guess=read opt=(tight,modredundant)
 --------------------------------------------------------------------

 -----------------------------------
 Geometry optimization at the 2D-PES
 -----------------------------------
 Symbolic Z-matrix:
 Charge =  0 Multiplicity = 1

 SCF Done:  E(RHF) =  -226.381008003     A.U. after   13 cycles
 SCF Done:  E(RHF) =  -226.381010454     A.U. after   11 cycles
 SCF Done:  E(RHF) =  -226.381012183     A.U. after   11 cycles
 SCF Done:  E(RHF) =  -226.381012205     A.U. after    7 cycles
 SCF Done:  E(RHF) =  -226.381012207     A.U. after    6 cycles
 Optimization completed.
    -- Stationary point found.

                          Input orientation:
 ---------------------------------------------------------------------
 Center     Atomic      Atomic             Coordinates (Angstroms)
 Number     Number       Type             X           Y           Z
 ---------------------------------------------------------------------
      1          6           0        0.754509    0.621943    0.038874
      2          6           0        1.390966   -0.521257   -0.007103
      3          1           0        1.236699    1.578476    0.078960
      4          1           0        2.461538   -0.554313   -0.016971
      5          1           0        0.852722   -1.446101   -0.055429
      6          8           0       -0.654130    0.674860   -0.007915
      7          8           0       -1.201364    0.852959    1.356900
      8          1           0       -0.422756    1.048907    1.910565
 ---------------------------------------------------------------------

 Alpha  occ. eigenvalues --  -20.52787 -20.51809 -11.24958 -11.19561  -1.46226
 Alpha  occ. eigenvalues --   -1.23376  -1.04797  -0.81422  -0.71282  -0.67914
 Alpha  occ. eigenvalues --   -0.59854  -0.59222  -0.57330  -0.52309  -0.44083
 Alpha  occ. eigenvalues --   -0.39811
 Alpha virt. eigenvalues --    0.13516   0.26639   0.27549   0.29458   0.31105
 Alpha virt. eigenvalues --    0.35774   0.49127   0.55339   0.87269   0.96327
 Alpha virt. eigenvalues --    0.97864   1.05608   1.08832   1.11136   1.24443

 Mulliken charges:
               1
     1  C    0.060035
     2  C   -0.440362
     3  H    0.239287
     4  H    0.234159
     5  H    0.260579
     6  O   -0.375690
     7  O   -0.375415
     8  H    0.397407
 Sum of Mulliken charges =   0.00000

 Dipole moment (field-independent basis, Debye):
    X=              3.7005    Y=             -0.0409    Z=              1.2370  Tot=              3.9020
 Quadrupole moment (field-independent basis, Debye-Ang):
   XX=            -25.2685   YY=            -21.3973   ZZ=            -21.8029
   XY=              2.1181   XZ=              1.6177   YZ=              2.0698

 Normal termination of Gaussian 09 at Fri Apr 12 16:34:33 2019.
