 Gaussian 09, Revision D.01,
 Gaussian 09:  AS64L-G09RevD.01 24-Apr-2013

 --------------------------------------------------------------------
 #p hf 3-21g scf=tight NoSymmetry guess=read opt=(tight,modredundant)
 --------------------------------------------------------------------

 -----------------------------------
 Geometry optimization at the 2D-PES
 -----------------------------------
 Symbolic Z-matrix:
 Charge =  0 Multiplicity = 1

 SCF Done:  E(RHF) =  -226.383707914     A.U. after   14 cycles
 SCF Done:  E(RHF) =  -226.383859399     A.U. after   13 cycles
 SCF Done:  E(RHF) =  -226.383982696     A.U. after   12 cycles
 SCF Done:  E(RHF) =  -226.383984297     A.U. after   11 cycles
 SCF Done:  E(RHF) =  -226.383984727     A.U. after    9 cycles
 SCF Done:  E(RHF) =  -226.383984742     A.U. after    8 cycles
 SCF Done:  E(RHF) =  -226.383984743     A.U. after    6 cycles
 Optimization completed.
    -- Stationary point found.

                          Input orientation:
 ---------------------------------------------------------------------
 Center     Atomic      Atomic             Coordinates (Angstroms)
 Number     Number       Type             X           Y           Z
 ---------------------------------------------------------------------
      1          6           0        0.746659    0.571837    0.064908
      2          6           0        1.448132   -0.530307   -0.035782
      3          1           0        1.191732    1.544373    0.091334
      4          1           0        2.516405   -0.476709   -0.060501
      5          1           0        1.022037   -1.512486   -0.081078
      6          8           0       -0.648170    0.696456    0.052468
      7          8           0       -1.329677   -0.360280    0.799793
      8          1           0       -0.935752   -1.182503    0.462228
 ---------------------------------------------------------------------

 Alpha  occ. eigenvalues --  -20.54042 -20.53119 -11.25825 -11.18516  -1.48035
 Alpha  occ. eigenvalues --   -1.24393  -1.05087  -0.80876  -0.72994  -0.67541
 Alpha  occ. eigenvalues --   -0.65208  -0.58450  -0.55026  -0.52371  -0.48367
 Alpha  occ. eigenvalues --   -0.37852
 Alpha virt. eigenvalues --    0.16098   0.21796   0.27471   0.28110   0.35588
 Alpha virt. eigenvalues --    0.36762   0.49951   0.58634   0.87926   0.95559
 Alpha virt. eigenvalues --    0.99667   1.05510   1.08473   1.10895   1.25023

 Mulliken charges:
               1
     1  C    0.143056
     2  C   -0.509673
     3  H    0.265839
     4  H    0.240934
     5  H    0.207482
     6  O   -0.394103
     7  O   -0.362735
     8  H    0.409200
 Sum of Mulliken charges =   0.00000

 Dipole moment (field-independent basis, Debye):
    X=              2.5561    Y=             -1.7007    Z=             -0.5057  Tot=              3.1116
 Quadrupole moment (field-independent basis, Debye-Ang):
   XX=            -24.6756   YY=            -19.5575   ZZ=            -26.6348
   XY=              2.9852   XZ=              1.2337   YZ=             -0.2350

 Normal termination of Gaussian 09 at Fri Apr 12 17:14:12 2019.
