 Gaussian 09, Revision D.01,
 Gaussian 09:  AS64L-G09RevD.01 24-Apr-2013

 --------------------------------------------------------------------
 #p hf 3-21g scf=tight NoSymmetry guess=read opt=(tight,modredundant)
 --------------------------------------------------------------------

 -----------------------------------
 Geometry optimization at the 2D-PES
 -----------------------------------
 Symbolic Z-matrix:
 Charge =  0 Multiplicity = 1

 SCF Done:  E(RHF) =  -226.381738931     A.U. after   13 cycles
 SCF Done:  E(RHF) =  -226.381745181     A.U. after   11 cycles
 SCF Done:  E(RHF) =  -226.381748400     A.U. after   11 cycles
 SCF Done:  E(RHF) =  -226.381748481     A.U. after    9 cycles
 SCF Done:  E(RHF) =  -226.381748493     A.U. after    8 cycles
 Optimization completed.
    -- Stationary point found.

                          Input orientation:
 ---------------------------------------------------------------------
 Center     Atomic      Atomic             Coordinates (Angstroms)
 Number     Number       Type             X           Y           Z
 ---------------------------------------------------------------------
      1          6           0        0.751129    0.610874    0.038394
      2          6           0        1.401738   -0.524988   -0.018794
      3          1           0        1.221463    1.571981    0.074116
      4          1           0        2.472525   -0.542677   -0.015098
      5          1           0        0.879617   -1.459265   -0.073667
      6          8           0       -0.657965    0.683340    0.009602
      7          8           0       -1.232618    0.155638    1.265169
      8          1           0       -0.492418    0.199474    1.899149
 ---------------------------------------------------------------------

 Alpha  occ. eigenvalues --  -20.52759 -20.51984 -11.25078 -11.19407  -1.46411
 Alpha  occ. eigenvalues --   -1.23304  -1.04963  -0.81174  -0.71210  -0.68202
 Alpha  occ. eigenvalues --   -0.60110  -0.59022  -0.57605  -0.52128  -0.44698
 Alpha  occ. eigenvalues --   -0.39372
 Alpha virt. eigenvalues --    0.13723   0.26514   0.27580   0.28843   0.30747
 Alpha virt. eigenvalues --    0.36564   0.49665   0.55173   0.87217   0.96971
 Alpha virt. eigenvalues --    0.97410   1.04857   1.08469   1.10898   1.23849

 Mulliken charges:
               1
     1  C    0.066777
     2  C   -0.454135
     3  H    0.248124
     4  H    0.235051
     5  H    0.259177
     6  O   -0.380522
     7  O   -0.372240
     8  H    0.397767
 Sum of Mulliken charges =   0.00000

 Dipole moment (field-independent basis, Debye):
    X=              3.5840    Y=             -0.3080    Z=              1.4122  Tot=              3.8645
 Quadrupole moment (field-independent basis, Debye-Ang):
   XX=            -25.3448   YY=            -22.1780   ZZ=            -21.3240
   XY=              1.2721   XZ=              1.2224   YZ=              0.6622

 Normal termination of Gaussian 09 at Fri Apr 12 16:49:56 2019.
