 Gaussian 09, Revision D.01,
 Gaussian 09:  AS64L-G09RevD.01 24-Apr-2013

 --------------------------------------------------------------------
 #p hf 3-21g scf=tight NoSymmetry guess=read opt=(tight,modredundant)
 --------------------------------------------------------------------

 -----------------------------------
 Geometry optimization at the 2D-PES
 -----------------------------------
 Symbolic Z-matrix:
 Charge =  0 Multiplicity = 1

 SCF Done:  E(RHF) =  -226.395803881     A.U. after   13 cycles
 SCF Done:  E(RHF) =  -226.395807206     A.U. after   11 cycles
 SCF Done:  E(RHF) =  -226.395809677     A.U. after   10 cycles
 SCF Done:  E(RHF) =  -226.395809714     A.U. after    8 cycles
 SCF Done:  E(RHF) =  -226.395809717     A.U. after    7 cycles
 Optimization completed.
    -- Stationary point found.

                          Input orientation:
 ---------------------------------------------------------------------
 Center     Atomic      Atomic             Coordinates (Angstroms)
 Number     Number       Type             X           Y           Z
 ---------------------------------------------------------------------
      1          6           0        0.721274    0.637931    0.022471
      2          6           0        1.366421   -0.500383   -0.020758
      3          1           0        1.177592    1.602323    0.075131
      4          1           0        2.435545   -0.518821    0.025032
      5          1           0        0.846386   -1.434233   -0.085802
      6          8           0       -0.677864    0.667938    0.056258
      7          8           0       -1.070593    1.917390   -0.610883
      8          1           0       -1.927799    1.641028   -0.975601
 ---------------------------------------------------------------------

 Alpha  occ. eigenvalues --  -20.53386 -20.52417 -11.24198 -11.16640  -1.47399
 Alpha  occ. eigenvalues --   -1.23892  -1.02747  -0.79721  -0.70733  -0.66993
 Alpha  occ. eigenvalues --   -0.62859  -0.60824  -0.55480  -0.50032  -0.47561
 Alpha  occ. eigenvalues --   -0.36327
 Alpha virt. eigenvalues --    0.18251   0.24193   0.27862   0.31907   0.33584
 Alpha virt. eigenvalues --    0.36021   0.49888   0.57511   0.90151   0.97294
 Alpha virt. eigenvalues --    0.99990   1.07102   1.10820   1.12602   1.22635

 Mulliken charges:
               1
     1  C    0.167949
     2  C   -0.501749
     3  H    0.258872
     4  H    0.226538
     5  H    0.237138
     6  O   -0.418486
     7  O   -0.391621
     8  H    0.421359
 Sum of Mulliken charges =   0.00000

 Dipole moment (field-independent basis, Debye):
    X=             -0.0458    Y=             -0.2538    Z=             -0.9281  Tot=              0.9632
 Quadrupole moment (field-independent basis, Debye-Ang):
   XX=            -17.3861   YY=            -23.8609   ZZ=            -24.4327
   XY=             -1.1164   XZ=              3.1784   YZ=             -0.9034

 Normal termination of Gaussian 09 at Fri Apr 12 15:29:21 2019.
