 Gaussian 09, Revision D.01,
 Gaussian 09:  AS64L-G09RevD.01 24-Apr-2013

 --------------------------------------------------------------------
 #p hf 3-21g scf=tight NoSymmetry guess=read opt=(tight,modredundant)
 --------------------------------------------------------------------

 -----------------------------------
 Geometry optimization at the 2D-PES
 -----------------------------------
 Symbolic Z-matrix:
 Charge =  0 Multiplicity = 1

 SCF Done:  E(RHF) =  -226.395038580     A.U. after   13 cycles
 SCF Done:  E(RHF) =  -226.395047962     A.U. after   12 cycles
 SCF Done:  E(RHF) =  -226.395060122     A.U. after   11 cycles
 SCF Done:  E(RHF) =  -226.395060179     A.U. after    8 cycles
 SCF Done:  E(RHF) =  -226.395060184     A.U. after    8 cycles
 Optimization completed.
    -- Stationary point found.

                          Input orientation:
 ---------------------------------------------------------------------
 Center     Atomic      Atomic             Coordinates (Angstroms)
 Number     Number       Type             X           Y           Z
 ---------------------------------------------------------------------
      1          6           0        0.737907    0.575862    0.065864
      2          6           0        1.421216   -0.534876   -0.040609
      3          1           0        1.177386    1.551231    0.091765
      4          1           0        2.490424   -0.503376   -0.069892
      5          1           0        0.947900   -1.493178   -0.045757
      6          8           0       -0.655548    0.706422    0.052247
      7          8           0       -1.276764   -0.496366    0.599833
      8          1           0       -1.676464   -0.878034   -0.201131
 ---------------------------------------------------------------------

 Alpha  occ. eigenvalues --  -20.53846 -20.53012 -11.24512 -11.16684  -1.48030
 Alpha  occ. eigenvalues --   -1.24020  -1.03454  -0.79531  -0.70115  -0.69641
 Alpha  occ. eigenvalues --   -0.65160  -0.56908  -0.53714  -0.52600  -0.48438
 Alpha  occ. eigenvalues --   -0.36513
 Alpha virt. eigenvalues --    0.17898   0.23754   0.28924   0.29656   0.33054
 Alpha virt. eigenvalues --    0.37162   0.49774   0.58030   0.88767   0.96727
 Alpha virt. eigenvalues --    1.00457   1.06900   1.10055   1.12297   1.23159

 Mulliken charges:
               1
     1  C    0.149453
     2  C   -0.498945
     3  H    0.258672
     4  H    0.225400
     5  H    0.233033
     6  O   -0.409159
     7  O   -0.373038
     8  H    0.414584
 Sum of Mulliken charges =   0.00000

 Dipole moment (field-independent basis, Debye):
    X=              0.8115    Y=             -0.9771    Z=             -1.5143  Tot=              1.9765
 Quadrupole moment (field-independent basis, Debye-Ang):
   XX=            -20.5431   YY=            -21.2174   ZZ=            -26.3326
   XY=              3.5819   XZ=              2.5032   YZ=              1.3152

 Normal termination of Gaussian 09 at Fri Apr 12 17:29:37 2019.
