 Gaussian 09, Revision D.01,
 Gaussian 09:  AS64L-G09RevD.01 24-Apr-2013

 --------------------------------------------------------------------
 #p hf 3-21g scf=tight NoSymmetry guess=read opt=(tight,modredundant)
 --------------------------------------------------------------------

 -----------------------------------
 Geometry optimization at the 2D-PES
 -----------------------------------
 Symbolic Z-matrix:
 Charge =  0 Multiplicity = 1

 SCF Done:  E(RHF) =  -226.389238273     A.U. after   12 cycles
 SCF Done:  E(RHF) =  -226.389244005     A.U. after   12 cycles
 SCF Done:  E(RHF) =  -226.389249555     A.U. after   10 cycles
 SCF Done:  E(RHF) =  -226.389249565     A.U. after    7 cycles
 SCF Done:  E(RHF) =  -226.389249569     A.U. after    6 cycles
 Optimization completed.
    -- Stationary point found.

                          Input orientation:
 ---------------------------------------------------------------------
 Center     Atomic      Atomic             Coordinates (Angstroms)
 Number     Number       Type             X           Y           Z
 ---------------------------------------------------------------------
      1          6           0        0.741620    0.611550    0.048506
      2          6           0        1.390906   -0.521391   -0.015015
      3          1           0        1.212674    1.572525    0.093330
      4          1           0        2.461767   -0.539320   -0.010996
      5          1           0        0.867870   -1.454856   -0.057735
      6          8           0       -0.669860    0.687537    0.004998
      7          8           0       -1.212539    0.140214    1.256063
      8          1           0       -1.250255    0.935284    1.817397
 ---------------------------------------------------------------------

 Alpha  occ. eigenvalues --  -20.52544 -20.51939 -11.23863 -11.17918  -1.46519
 Alpha  occ. eigenvalues --   -1.22892  -1.03553  -0.79960  -0.69840  -0.67834
 Alpha  occ. eigenvalues --   -0.62214  -0.59814  -0.56124  -0.47602  -0.46653
 Alpha  occ. eigenvalues --   -0.38464
 Alpha virt. eigenvalues --    0.15140   0.26333   0.28914   0.30145   0.31987
 Alpha virt. eigenvalues --    0.36668   0.49662   0.56508   0.88213   0.96865
 Alpha virt. eigenvalues --    0.98872   1.06212   1.09795   1.11717   1.24372

 Mulliken charges:
               1
     1  C    0.104303
     2  C   -0.446834
     3  H    0.235169
     4  H    0.226783
     5  H    0.256059
     6  O   -0.399616
     7  O   -0.379581
     8  H    0.403717
 Sum of Mulliken charges =   0.00000

 Dipole moment (field-independent basis, Debye):
    X=              1.9615    Y=              1.2113    Z=              1.4251  Tot=              2.7103
 Quadrupole moment (field-independent basis, Debye-Ang):
   XX=            -22.7438   YY=            -20.3853   ZZ=            -21.8578
   XY=             -1.0935   XZ=             -1.7164   YZ=              3.6892

 Normal termination of Gaussian 09 at Fri Apr 12 16:51:42 2019.
