 Gaussian 09, Revision D.01,
 Gaussian 09:  AS64L-G09RevD.01 24-Apr-2013

 --------------------------------------------------------------------
 #p hf 3-21g scf=tight NoSymmetry guess=read opt=(tight,modredundant)
 --------------------------------------------------------------------

 -----------------------------------
 Geometry optimization at the 2D-PES
 -----------------------------------
 Symbolic Z-matrix:
 Charge =  0 Multiplicity = 1

 SCF Done:  E(RHF) =  -226.392601633     A.U. after   13 cycles
 SCF Done:  E(RHF) =  -226.392612889     A.U. after   11 cycles
 SCF Done:  E(RHF) =  -226.392618719     A.U. after   10 cycles
 SCF Done:  E(RHF) =  -226.392618795     A.U. after    9 cycles
 SCF Done:  E(RHF) =  -226.392618805     A.U. after    6 cycles
 Optimization completed.
    -- Stationary point found.

                          Input orientation:
 ---------------------------------------------------------------------
 Center     Atomic      Atomic             Coordinates (Angstroms)
 Number     Number       Type             X           Y           Z
 ---------------------------------------------------------------------
      1          6           0        0.735756    0.632050    0.050507
      2          6           0        1.373967   -0.508188    0.002879
      3          1           0        1.209017    1.589786    0.118213
      4          1           0        2.444159   -0.538286   -0.010603
      5          1           0        0.837888   -1.433965   -0.040074
      6          8           0       -0.669475    0.672265   -0.021383
      7          8           0       -1.142664    1.298623    1.220753
      8          1           0       -1.315473    2.208664    0.920628
 ---------------------------------------------------------------------

 Alpha  occ. eigenvalues --  -20.53093 -20.52212 -11.24160 -11.17658  -1.47083
 Alpha  occ. eigenvalues --   -1.23426  -1.03325  -0.80017  -0.69439  -0.68855
 Alpha  occ. eigenvalues --   -0.64709  -0.56936  -0.55690  -0.49470  -0.47441
 Alpha  occ. eigenvalues --   -0.37868
 Alpha virt. eigenvalues --    0.16323   0.25678   0.27575   0.31293   0.32845
 Alpha virt. eigenvalues --    0.35653   0.49164   0.56725   0.89013   0.97062
 Alpha virt. eigenvalues --    0.98807   1.06815   1.10213   1.11864   1.24065

 Mulliken charges:
               1
     1  C    0.139083
     2  C   -0.466374
     3  H    0.226926
     4  H    0.227220
     5  H    0.250603
     6  O   -0.400840
     7  O   -0.381762
     8  H    0.405144
 Sum of Mulliken charges =   0.00000

 Dipole moment (field-independent basis, Debye):
    X=              1.5976    Y=              1.7436    Z=             -0.3800  Tot=              2.3952
 Quadrupole moment (field-independent basis, Debye-Ang):
   XX=            -22.1234   YY=            -15.1111   ZZ=            -27.0924
   XY=             -2.0950   XZ=              0.2777   YZ=              1.2874

 Normal termination of Gaussian 09 at Fri Apr 12 16:17:03 2019.
