 Gaussian 09, Revision D.01,
 Gaussian 09:  AS64L-G09RevD.01 24-Apr-2013

 --------------------------------------------------------------------
 #p hf 3-21g scf=tight NoSymmetry guess=read opt=(tight,modredundant)
 --------------------------------------------------------------------

 -----------------------------------
 Geometry optimization at the 2D-PES
 -----------------------------------
 Symbolic Z-matrix:
 Charge =  0 Multiplicity = 1

 SCF Done:  E(RHF) =  -226.393363405     A.U. after   13 cycles
 SCF Done:  E(RHF) =  -226.393364150     A.U. after   10 cycles
 SCF Done:  E(RHF) =  -226.393364219     A.U. after    8 cycles
 SCF Done:  E(RHF) =  -226.393364235     A.U. after    7 cycles
 SCF Done:  E(RHF) =  -226.393364236     A.U. after    6 cycles
 Optimization completed.
    -- Stationary point found.

                          Input orientation:
 ---------------------------------------------------------------------
 Center     Atomic      Atomic             Coordinates (Angstroms)
 Number     Number       Type             X           Y           Z
 ---------------------------------------------------------------------
      1          6           0        0.724242    0.627269    0.042490
      2          6           0        1.369452   -0.509561    0.000793
      3          1           0        1.190125    1.585880    0.129907
      4          1           0        2.440030   -0.533061    0.012606
      5          1           0        0.842711   -1.440003   -0.058773
      6          8           0       -0.680467    0.666420   -0.026526
      7          8           0       -1.143820    0.832538    1.368395
      8          1           0       -2.102597    0.846834    1.206310
 ---------------------------------------------------------------------

 Alpha  occ. eigenvalues --  -20.52187 -20.51402 -11.23563 -11.17629  -1.45892
 Alpha  occ. eigenvalues --   -1.22929  -1.03010  -0.79101  -0.68978  -0.68225
 Alpha  occ. eigenvalues --   -0.63982  -0.57450  -0.55402  -0.51078  -0.43647
 Alpha  occ. eigenvalues --   -0.38327
 Alpha virt. eigenvalues --    0.15643   0.27819   0.29070   0.30901   0.32016
 Alpha virt. eigenvalues --    0.36468   0.49489   0.56944   0.89178   0.97540
 Alpha virt. eigenvalues --    0.99286   1.07126   1.10420   1.12272   1.23905

 Mulliken charges:
               1
     1  C    0.144508
     2  C   -0.453053
     3  H    0.237099
     4  H    0.227047
     5  H    0.244956
     6  O   -0.421083
     7  O   -0.394324
     8  H    0.414851
 Sum of Mulliken charges =   0.00000

 Dipole moment (field-independent basis, Debye):
    X=              0.0335    Y=             -0.1906    Z=             -0.0415  Tot=              0.1979
 Quadrupole moment (field-independent basis, Debye-Ang):
   XX=            -15.9732   YY=            -22.1145   ZZ=            -26.5368
   XY=             -0.6792   XZ=             -2.2001   YZ=              0.1647

 Normal termination of Gaussian 09 at Fri Apr 12 16:29:06 2019.
