 Gaussian 09, Revision D.01,
 Gaussian 09:  AS64L-G09RevD.01 24-Apr-2013

 --------------------------------------------------------------------
 #p hf 3-21g scf=tight NoSymmetry guess=read opt=(tight,modredundant)
 --------------------------------------------------------------------

 -----------------------------------
 Geometry optimization at the 2D-PES
 -----------------------------------
 Symbolic Z-matrix:
 Charge =  0 Multiplicity = 1

 SCF Done:  E(RHF) =  -226.395223637     A.U. after   13 cycles
 SCF Done:  E(RHF) =  -226.395230276     A.U. after   11 cycles
 SCF Done:  E(RHF) =  -226.395235789     A.U. after   10 cycles
 SCF Done:  E(RHF) =  -226.395235861     A.U. after    9 cycles
 SCF Done:  E(RHF) =  -226.395235865     A.U. after    7 cycles
 SCF Done:  E(RHF) =  -226.395235866     A.U. after    6 cycles
 Optimization completed.
    -- Stationary point found.

                          Input orientation:
 ---------------------------------------------------------------------
 Center     Atomic      Atomic             Coordinates (Angstroms)
 Number     Number       Type             X           Y           Z
 ---------------------------------------------------------------------
      1          6           0        0.729359    0.636147    0.038275
      2          6           0        1.369370   -0.504827   -0.012573
      3          1           0        1.187452    1.598547    0.100463
      4          1           0        2.439305   -0.522306   -0.000692
      5          1           0        0.848625   -1.439205   -0.062386
      6          8           0       -0.672438    0.676219    0.027748
      7          8           0       -1.066565    2.082437    0.093941
      8          1           0       -1.566922    2.163425   -0.735878
 ---------------------------------------------------------------------

 Alpha  occ. eigenvalues --  -20.53833 -20.53112 -11.24399 -11.16361  -1.48169
 Alpha  occ. eigenvalues --   -1.24152  -1.02790  -0.79876  -0.71516  -0.67001
 Alpha  occ. eigenvalues --   -0.64872  -0.58008  -0.55122  -0.51526  -0.48758
 Alpha  occ. eigenvalues --   -0.35903
 Alpha virt. eigenvalues --    0.19480   0.22178   0.27525   0.32033   0.34010
 Alpha virt. eigenvalues --    0.35886   0.49770   0.57721   0.90348   0.96961
 Alpha virt. eigenvalues --    1.00380   1.06292   1.10918   1.12596   1.22291

 Mulliken charges:
               1
     1  C    0.157560
     2  C   -0.511068
     3  H    0.262478
     4  H    0.226470
     5  H    0.238284
     6  O   -0.410909
     7  O   -0.380516
     8  H    0.417702
 Sum of Mulliken charges =   0.00000

 Dipole moment (field-independent basis, Debye):
    X=              0.6377    Y=              0.6560    Z=             -1.7433  Tot=              1.9688
 Quadrupole moment (field-independent basis, Debye-Ang):
   XX=            -20.3458   YY=            -20.7545   ZZ=            -24.4815
   XY=             -1.3026   XZ=              3.0256   YZ=             -3.7496

 Normal termination of Gaussian 09 at Fri Apr 12 15:39:22 2019.
