 Gaussian 09, Revision D.01,
 Gaussian 09:  AS64L-G09RevD.01 24-Apr-2013

 --------------------------------------------------------------------
 #p hf 3-21g scf=tight NoSymmetry guess=read opt=(tight,modredundant)
 --------------------------------------------------------------------

 -----------------------------------
 Geometry optimization at the 2D-PES
 -----------------------------------
 Symbolic Z-matrix:
 Charge =  0 Multiplicity = 1

 SCF Done:  E(RHF) =  -226.394830249     A.U. after   13 cycles
 SCF Done:  E(RHF) =  -226.394837722     A.U. after   11 cycles
 SCF Done:  E(RHF) =  -226.394844300     A.U. after   10 cycles
 SCF Done:  E(RHF) =  -226.394844351     A.U. after    8 cycles
 SCF Done:  E(RHF) =  -226.394844353     A.U. after    7 cycles
 Optimization completed.
    -- Stationary point found.

                          Input orientation:
 ---------------------------------------------------------------------
 Center     Atomic      Atomic             Coordinates (Angstroms)
 Number     Number       Type             X           Y           Z
 ---------------------------------------------------------------------
      1          6           0        0.731145    0.636680    0.029009
      2          6           0        1.370578   -0.504848   -0.014161
      3          1           0        1.189174    1.598938    0.095957
      4          1           0        2.440139   -0.524540    0.017278
      5          1           0        0.848920   -1.438336   -0.071842
      6          8           0       -0.671990    0.675355    0.033723
      7          8           0       -1.070541    2.068340   -0.156856
      8          1           0       -1.441263    2.031287   -1.055615
 ---------------------------------------------------------------------

 Alpha  occ. eigenvalues --  -20.53860 -20.53112 -11.24449 -11.16577  -1.48200
 Alpha  occ. eigenvalues --   -1.24112  -1.02945  -0.79941  -0.71905  -0.66550
 Alpha  occ. eigenvalues --   -0.64744  -0.58652  -0.55128  -0.51097  -0.48756
 Alpha  occ. eigenvalues --   -0.36222
 Alpha virt. eigenvalues --    0.18994   0.22494   0.27465   0.31868   0.33891
 Alpha virt. eigenvalues --    0.35825   0.49623   0.57566   0.90186   0.96809
 Alpha virt. eigenvalues --    1.00172   1.06122   1.10750   1.12211   1.22770

 Mulliken charges:
               1
     1  C    0.150552
     2  C   -0.508459
     3  H    0.262180
     4  H    0.227238
     5  H    0.238934
     6  O   -0.406359
     7  O   -0.379448
     8  H    0.415361
 Sum of Mulliken charges =   0.00000

 Dipole moment (field-independent basis, Debye):
    X=              0.9356    Y=              0.3594    Z=             -1.9368  Tot=              2.1808
 Quadrupole moment (field-independent basis, Debye-Ang):
   XX=            -21.2085   YY=            -21.9032   ZZ=            -23.2194
   XY=             -0.2882   XZ=              3.3244   YZ=             -3.8413

 Normal termination of Gaussian 09 at Fri Apr 12 15:36:21 2019.
