 Gaussian 09, Revision D.01,
 Gaussian 09:  AS64L-G09RevD.01 24-Apr-2013

 --------------------------------------------------------------------
 #p hf 3-21g scf=tight NoSymmetry guess=read opt=(tight,modredundant)
 --------------------------------------------------------------------

 -----------------------------------
 Geometry optimization at the 2D-PES
 -----------------------------------
 Symbolic Z-matrix:
 Charge =  0 Multiplicity = 1

 SCF Done:  E(RHF) =  -226.390084337     A.U. after   13 cycles
 SCF Done:  E(RHF) =  -226.390093962     A.U. after   11 cycles
 SCF Done:  E(RHF) =  -226.390099590     A.U. after   10 cycles
 SCF Done:  E(RHF) =  -226.390099644     A.U. after    9 cycles
 SCF Done:  E(RHF) =  -226.390099648     A.U. after    7 cycles
 Optimization completed.
    -- Stationary point found.

                          Input orientation:
 ---------------------------------------------------------------------
 Center     Atomic      Atomic             Coordinates (Angstroms)
 Number     Number       Type             X           Y           Z
 ---------------------------------------------------------------------
      1          6           0        0.733755    0.607128    0.049641
      2          6           0        1.392208   -0.521334   -0.015954
      3          1           0        1.201582    1.567278    0.105773
      4          1           0        2.462816   -0.527846   -0.010243
      5          1           0        0.891404   -1.467163   -0.068632
      6          8           0       -0.674446    0.686220    0.007423
      7          8           0       -1.213551    0.136159    1.260061
      8          1           0       -1.617160   -0.685997    0.933346
 ---------------------------------------------------------------------

 Alpha  occ. eigenvalues --  -20.52618 -20.52095 -11.24155 -11.18055  -1.46639
 Alpha  occ. eigenvalues --   -1.23152  -1.03785  -0.79467  -0.70698  -0.67539
 Alpha  occ. eigenvalues --   -0.64889  -0.58050  -0.55428  -0.49004  -0.46834
 Alpha  occ. eigenvalues --   -0.38222
 Alpha virt. eigenvalues --    0.15204   0.25171   0.29100   0.30209   0.32171
 Alpha virt. eigenvalues --    0.36737   0.49809   0.56497   0.88405   0.96920
 Alpha virt. eigenvalues --    0.97947   1.06390   1.09479   1.12220   1.24376

 Mulliken charges:
               1
     1  C    0.139757
     2  C   -0.463462
     3  H    0.246477
     4  H    0.231840
     5  H    0.226371
     6  O   -0.411389
     7  O   -0.378175
     8  H    0.408581
 Sum of Mulliken charges =   0.00000

 Dipole moment (field-independent basis, Debye):
    X=              1.1537    Y=             -1.9473    Z=             -0.3748  Tot=              2.2942
 Quadrupole moment (field-independent basis, Debye-Ang):
   XX=            -20.3930   YY=            -21.1851   ZZ=            -27.1449
   XY=              4.2210   XZ=             -0.0090   YZ=             -1.3447

 Normal termination of Gaussian 09 at Fri Apr 12 16:55:43 2019.
