 Gaussian 09, Revision D.01,
 Gaussian 09:  AS64L-G09RevD.01 24-Apr-2013

 --------------------------------------------------------------------
 #p hf 3-21g scf=tight NoSymmetry guess=read opt=(tight,modredundant)
 --------------------------------------------------------------------

 -----------------------------------
 Geometry optimization at the 2D-PES
 -----------------------------------
 Symbolic Z-matrix:
 Charge =  0 Multiplicity = 1

 SCF Done:  E(RHF) =  -226.379007982     A.U. after   13 cycles
 SCF Done:  E(RHF) =  -226.379022710     A.U. after   13 cycles
 SCF Done:  E(RHF) =  -226.379051046     A.U. after   12 cycles
 SCF Done:  E(RHF) =  -226.379051257     A.U. after   10 cycles
 SCF Done:  E(RHF) =  -226.379051304     A.U. after    9 cycles
 SCF Done:  E(RHF) =  -226.379051307     A.U. after    6 cycles
 Optimization completed.
    -- Stationary point found.

                          Input orientation:
 ---------------------------------------------------------------------
 Center     Atomic      Atomic             Coordinates (Angstroms)
 Number     Number       Type             X           Y           Z
 ---------------------------------------------------------------------
      1          6           0        0.766250    0.629478    0.036470
      2          6           0        1.383963   -0.523383   -0.005466
      3          1           0        1.280064    1.568028    0.106828
      4          1           0        2.453026   -0.565670    0.011607
      5          1           0        0.838870   -1.443299   -0.057382
      6          8           0       -0.632875    0.697923    0.018903
      7          8           0       -1.131036    2.075309    0.072538
      8          1           0       -0.382789    2.629843   -0.213756
 ---------------------------------------------------------------------

 Alpha  occ. eigenvalues --  -20.54211 -20.53392 -11.25985 -11.17589  -1.48137
 Alpha  occ. eigenvalues --   -1.24744  -1.04161  -0.82145  -0.72036  -0.66895
 Alpha  occ. eigenvalues --   -0.64338  -0.58615  -0.55245  -0.53000  -0.49282
 Alpha  occ. eigenvalues --   -0.36476
 Alpha virt. eigenvalues --    0.17956   0.21697   0.23568   0.31032   0.34027
 Alpha virt. eigenvalues --    0.35868   0.51553   0.56385   0.88788   0.95861
 Alpha virt. eigenvalues --    0.99138   1.05618   1.09891   1.11198   1.22985

 Mulliken charges:
               1
     1  C    0.128633
     2  C   -0.494052
     3  H    0.228005
     4  H    0.230681
     5  H    0.250361
     6  O   -0.383701
     7  O   -0.359578
     8  H    0.399650
 Sum of Mulliken charges =   0.00000

 Dipole moment (field-independent basis, Debye):
    X=              3.2673    Y=              1.2727    Z=             -0.5349  Tot=              3.5470
 Quadrupole moment (field-independent basis, Debye-Ang):
   XX=            -25.2716   YY=            -16.2934   ZZ=            -25.7328
   XY=              3.8982   XZ=              0.4429   YZ=             -1.3169

 Normal termination of Gaussian 09 at Fri Apr 12 15:42:16 2019.
