 Gaussian 09, Revision D.01,
 Gaussian 09:  AS64L-G09RevD.01 24-Apr-2013

 --------------------------------------------------------------------
 #p hf 3-21g scf=tight NoSymmetry guess=read opt=(tight,modredundant)
 --------------------------------------------------------------------

 -----------------------------------
 Geometry optimization at the 2D-PES
 -----------------------------------
 Symbolic Z-matrix:
 Charge =  0 Multiplicity = 1

 SCF Done:  E(RHF) =  -226.395889492     A.U. after   13 cycles
 SCF Done:  E(RHF) =  -226.395894921     A.U. after   11 cycles
 SCF Done:  E(RHF) =  -226.395899756     A.U. after   10 cycles
 SCF Done:  E(RHF) =  -226.395899829     A.U. after    8 cycles
 SCF Done:  E(RHF) =  -226.395899833     A.U. after    7 cycles
 SCF Done:  E(RHF) =  -226.395899833     A.U. after    6 cycles
 Optimization completed.
    -- Stationary point found.

                          Input orientation:
 ---------------------------------------------------------------------
 Center     Atomic      Atomic             Coordinates (Angstroms)
 Number     Number       Type             X           Y           Z
 ---------------------------------------------------------------------
      1          6           0        0.726946    0.635059    0.046218
      2          6           0        1.368361   -0.505231   -0.005740
      3          1           0        1.184238    1.598138    0.104515
      4          1           0        2.438342   -0.521218   -0.003660
      5          1           0        0.848281   -1.440079   -0.052271
      6          8           0       -0.671719    0.675991    0.003961
      7          8           0       -1.062374    2.051094    0.323135
      8          1           0       -1.790299    2.165289   -0.310298
 ---------------------------------------------------------------------

 Alpha  occ. eigenvalues --  -20.53706 -20.52922 -11.24293 -11.16229  -1.47940
 Alpha  occ. eigenvalues --   -1.24141  -1.02622  -0.79795  -0.70837  -0.67410
 Alpha  occ. eigenvalues --   -0.64762  -0.57943  -0.55260  -0.51460  -0.48553
 Alpha  occ. eigenvalues --   -0.35654
 Alpha virt. eigenvalues --    0.19330   0.22710   0.27705   0.32174   0.33993
 Alpha virt. eigenvalues --    0.36020   0.49971   0.57828   0.90463   0.97200
 Alpha virt. eigenvalues --    1.00500   1.06626   1.11047   1.12787   1.22252

 Mulliken charges:
               1
     1  C    0.166719
     2  C   -0.511340
     3  H    0.262551
     4  H    0.225806
     5  H    0.237495
     6  O   -0.417381
     7  O   -0.384784
     8  H    0.420933
 Sum of Mulliken charges =   0.00000

 Dipole moment (field-independent basis, Debye):
    X=              0.1467    Y=              0.7301    Z=             -1.2561  Tot=              1.4603
 Quadrupole moment (field-independent basis, Debye-Ang):
   XX=            -18.5829   YY=            -20.4395   ZZ=            -25.7431
   XY=             -2.4898   XZ=              2.1450   YZ=             -2.6928

 Normal termination of Gaussian 09 at Fri Apr 12 15:47:33 2019.
