 Gaussian 09, Revision D.01,
 Gaussian 09:  AS64L-G09RevD.01 24-Apr-2013

 --------------------------------------------------------------------
 #p hf 3-21g scf=tight NoSymmetry guess=read opt=(tight,modredundant)
 --------------------------------------------------------------------

 -----------------------------------
 Geometry optimization at the 2D-PES
 -----------------------------------
 Symbolic Z-matrix:
 Charge =  0 Multiplicity = 1

 SCF Done:  E(RHF) =  -226.381392621     A.U. after   13 cycles
 SCF Done:  E(RHF) =  -226.381400374     A.U. after   12 cycles
 SCF Done:  E(RHF) =  -226.381405543     A.U. after   11 cycles
 SCF Done:  E(RHF) =  -226.381405665     A.U. after    8 cycles
 SCF Done:  E(RHF) =  -226.381405682     A.U. after    7 cycles
 SCF Done:  E(RHF) =  -226.381405683     A.U. after    6 cycles
 Optimization completed.
    -- Stationary point found.

                          Input orientation:
 ---------------------------------------------------------------------
 Center     Atomic      Atomic             Coordinates (Angstroms)
 Number     Number       Type             X           Y           Z
 ---------------------------------------------------------------------
      1          6           0        0.750313    0.604278    0.035915
      2          6           0        1.412558   -0.526448   -0.024884
      3          1           0        1.213606    1.568115    0.070443
      4          1           0        2.482997   -0.530750   -0.021500
      5          1           0        0.907565   -1.469820   -0.096482
      6          8           0       -0.653956    0.681459    0.022421
      7          8           0       -1.249077   -0.046009    1.161872
      8          1           0       -0.478097   -0.402441    1.642392
 ---------------------------------------------------------------------

 Alpha  occ. eigenvalues --  -20.53086 -20.52276 -11.25716 -11.19425  -1.46812
 Alpha  occ. eigenvalues --   -1.23686  -1.05353  -0.81210  -0.72258  -0.67879
 Alpha  occ. eigenvalues --   -0.60967  -0.59768  -0.56151  -0.53255  -0.45623
 Alpha  occ. eigenvalues --   -0.38932
 Alpha virt. eigenvalues --    0.14099   0.24996   0.27687   0.29112   0.30475
 Alpha virt. eigenvalues --    0.36609   0.49936   0.55162   0.87309   0.96083
 Alpha virt. eigenvalues --    0.99169   1.04394   1.08040   1.11055   1.23069

 Mulliken charges:
               1
     1  C    0.093528
     2  C   -0.486344
     3  H    0.256641
     4  H    0.238617
     5  H    0.250112
     6  O   -0.384349
     7  O   -0.368697
     8  H    0.400492
 Sum of Mulliken charges =   0.00000

 Dipole moment (field-independent basis, Debye):
    X=              3.5617    Y=             -0.9454    Z=              1.0864  Tot=              3.8419
 Quadrupole moment (field-independent basis, Debye-Ang):
   XX=            -25.4767   YY=            -21.8267   ZZ=            -22.7457
   XY=              1.5462   XZ=              1.2685   YZ=             -1.0359

 Normal termination of Gaussian 09 at Fri Apr 12 17:05:19 2019.
