 Gaussian 09, Revision D.01,
 Gaussian 09:  AS64L-G09RevD.01 24-Apr-2013

 --------------------------------------------------------------------
 #p hf 3-21g scf=tight NoSymmetry guess=read opt=(tight,modredundant)
 --------------------------------------------------------------------

 -----------------------------------
 Geometry optimization at the 2D-PES
 -----------------------------------
 Symbolic Z-matrix:
 Charge =  0 Multiplicity = 1

 SCF Done:  E(RHF) =  -226.392286656     A.U. after   13 cycles
 SCF Done:  E(RHF) =  -226.392299737     A.U. after   12 cycles
 SCF Done:  E(RHF) =  -226.392314820     A.U. after   12 cycles
 SCF Done:  E(RHF) =  -226.392314971     A.U. after    9 cycles
 SCF Done:  E(RHF) =  -226.392314990     A.U. after    8 cycles
 SCF Done:  E(RHF) =  -226.392314991     A.U. after    7 cycles
 Optimization completed.
    -- Stationary point found.

                          Input orientation:
 ---------------------------------------------------------------------
 Center     Atomic      Atomic             Coordinates (Angstroms)
 Number     Number       Type             X           Y           Z
 ---------------------------------------------------------------------
      1          6           0        0.743523    0.578359    0.039580
      2          6           0        1.429103   -0.534921   -0.039835
      3          1           0        1.176998    1.555795    0.080195
      4          1           0        2.498566   -0.505339   -0.041358
      5          1           0        0.949670   -1.487474   -0.117573
      6          8           0       -0.650211    0.700410    0.044415
      7          8           0       -1.283441   -0.560264    0.417672
      8          1           0       -0.923682   -0.721555    1.311165
 ---------------------------------------------------------------------

 Alpha  occ. eigenvalues --  -20.54395 -20.53302 -11.25338 -11.17443  -1.48566
 Alpha  occ. eigenvalues --   -1.24243  -1.04363  -0.80753  -0.71065  -0.69139
 Alpha  occ. eigenvalues --   -0.64357  -0.57124  -0.56481  -0.52125  -0.48465
 Alpha  occ. eigenvalues --   -0.37278
 Alpha virt. eigenvalues --    0.17712   0.23145   0.28168   0.28961   0.32410
 Alpha virt. eigenvalues --    0.36829   0.49458   0.57688   0.87975   0.96535
 Alpha virt. eigenvalues --    0.99759   1.05877   1.09147   1.10921   1.24511

 Mulliken charges:
               1
     1  C    0.123087
     2  C   -0.515557
     3  H    0.264346
     4  H    0.229318
     5  H    0.247171
     6  O   -0.388862
     7  O   -0.365723
     8  H    0.406220
 Sum of Mulliken charges =   0.00000

 Dipole moment (field-independent basis, Debye):
    X=              2.3881    Y=             -0.4421    Z=              1.8693  Tot=              3.0648
 Quadrupole moment (field-independent basis, Debye-Ang):
   XX=            -24.8172   YY=            -21.8633   ZZ=            -22.3305
   XY=              1.5123   XZ=             -1.4751   YZ=             -1.3218

 Normal termination of Gaussian 09 at Fri Apr 12 17:40:56 2019.
