 Gaussian 09, Revision D.01,
 Gaussian 09:  AS64L-G09RevD.01 24-Apr-2013

 --------------------------------------------------------------------
 #p hf 3-21g scf=tight NoSymmetry guess=read opt=(tight,modredundant)
 --------------------------------------------------------------------

 -----------------------------------
 Geometry optimization at the 2D-PES
 -----------------------------------
 Symbolic Z-matrix:
 Charge =  0 Multiplicity = 1

 SCF Done:  E(RHF) =  -226.394416320     A.U. after   13 cycles
 SCF Done:  E(RHF) =  -226.394418605     A.U. after   11 cycles
 SCF Done:  E(RHF) =  -226.394420779     A.U. after   10 cycles
 SCF Done:  E(RHF) =  -226.394420808     A.U. after    8 cycles
 SCF Done:  E(RHF) =  -226.394420810     A.U. after    6 cycles
 Optimization completed.
    -- Stationary point found.

                          Input orientation:
 ---------------------------------------------------------------------
 Center     Atomic      Atomic             Coordinates (Angstroms)
 Number     Number       Type             X           Y           Z
 ---------------------------------------------------------------------
      1          6           0        0.734195    0.589118    0.062039
      2          6           0        1.403761   -0.530630   -0.031142
      3          1           0        1.185203    1.559749    0.088314
      4          1           0        2.474118   -0.516282   -0.044171
      5          1           0        0.908894   -1.478370   -0.057762
      6          8           0       -0.661171    0.707616    0.038348
      7          8           0       -1.240017   -0.397342    0.814200
      8          1           0       -2.047769    0.042833    1.128507
 ---------------------------------------------------------------------

 Alpha  occ. eigenvalues --  -20.53014 -20.52212 -11.23859 -11.16365  -1.46957
 Alpha  occ. eigenvalues --   -1.23483  -1.02806  -0.79018  -0.71247  -0.64993
 Alpha  occ. eigenvalues --   -0.63492  -0.61655  -0.54223  -0.50175  -0.46654
 Alpha  occ. eigenvalues --   -0.36272
 Alpha virt. eigenvalues --    0.17607   0.24987   0.29084   0.30561   0.33388
 Alpha virt. eigenvalues --    0.37272   0.50283   0.58125   0.89126   0.97532
 Alpha virt. eigenvalues --    1.00004   1.07328   1.10755   1.12788   1.23753

 Mulliken charges:
               1
     1  C    0.144897
     2  C   -0.481724
     3  H    0.249295
     4  H    0.221185
     5  H    0.253319
     6  O   -0.421364
     7  O   -0.385707
     8  H    0.420098
 Sum of Mulliken charges =   0.00000

 Dipole moment (field-independent basis, Debye):
    X=              0.0529    Y=              0.6172    Z=              0.9030  Tot=              1.0951
 Quadrupole moment (field-independent basis, Debye-Ang):
   XX=            -17.1266   YY=            -22.6909   ZZ=            -24.3095
   XY=              0.1612   XZ=             -3.0384   YZ=              1.0692

 Normal termination of Gaussian 09 at Fri Apr 12 17:18:17 2019.
