 Gaussian 09, Revision D.01,
 Gaussian 09:  AS64L-G09RevD.01 24-Apr-2013

 --------------------------------------------------------------------
 #p hf 3-21g scf=tight NoSymmetry guess=read opt=(tight,modredundant)
 --------------------------------------------------------------------

 -----------------------------------
 Geometry optimization at the 2D-PES
 -----------------------------------
 Symbolic Z-matrix:
 Charge =  0 Multiplicity = 1

 SCF Done:  E(RHF) =  -226.382426253     A.U. after   12 cycles
 SCF Done:  E(RHF) =  -226.382453588     A.U. after   12 cycles
 SCF Done:  E(RHF) =  -226.382464023     A.U. after   12 cycles
 SCF Done:  E(RHF) =  -226.382464381     A.U. after   10 cycles
 SCF Done:  E(RHF) =  -226.382464384     A.U. after    6 cycles
 Optimization completed.
    -- Stationary point found.

                          Input orientation:
 ---------------------------------------------------------------------
 Center     Atomic      Atomic             Coordinates (Angstroms)
 Number     Number       Type             X           Y           Z
 ---------------------------------------------------------------------
      1          6           0        0.740126    0.580144    0.005057
      2          6           0        1.443008   -0.526074    0.019547
      3          1           0        1.181980    1.550984    0.087369
      4          1           0        2.509550   -0.474088    0.085808
      5          1           0        1.019590   -1.509601   -0.031697
      6          8           0       -0.653983    0.700536   -0.030871
      7          8           0       -1.307973   -0.268384   -0.912927
      8          1           0       -0.820812   -1.097248   -0.771170
 ---------------------------------------------------------------------

 Alpha  occ. eigenvalues --  -20.54030 -20.53066 -11.26018 -11.18689  -1.47947
 Alpha  occ. eigenvalues --   -1.24460  -1.05269  -0.81042  -0.73198  -0.67659
 Alpha  occ. eigenvalues --   -0.64606  -0.58752  -0.55059  -0.52778  -0.48190
 Alpha  occ. eigenvalues --   -0.37894
 Alpha virt. eigenvalues --    0.15913   0.21790   0.27325   0.28019   0.35461
 Alpha virt. eigenvalues --    0.36789   0.49954   0.58691   0.87833   0.95397
 Alpha virt. eigenvalues --    1.00204   1.05367   1.08249   1.10825   1.24621

 Mulliken charges:
               1
     1  C    0.141598
     2  C   -0.514390
     3  H    0.266875
     4  H    0.242334
     5  H    0.209297
     6  O   -0.392748
     7  O   -0.362752
     8  H    0.409787
 Sum of Mulliken charges =   0.00000

 Dipole moment (field-independent basis, Debye):
    X=              2.7609    Y=             -1.6852    Z=              0.1932  Tot=              3.2404
 Quadrupole moment (field-independent basis, Debye-Ang):
   XX=            -25.0000   YY=            -19.8053   ZZ=            -26.2429
   XY=              2.7918   XZ=             -0.8358   YZ=              1.3837

 Normal termination of Gaussian 09 at Fri Apr 12 14:54:47 2019.
