 Gaussian 09, Revision D.01,
 Gaussian 09:  AS64L-G09RevD.01 24-Apr-2013

 --------------------------------------------------------------------
 #p hf 3-21g scf=tight NoSymmetry guess=read opt=(tight,modredundant)
 --------------------------------------------------------------------

 -----------------------------------
 Geometry optimization at the 2D-PES
 -----------------------------------
 Symbolic Z-matrix:
 Charge =  0 Multiplicity = 1

 SCF Done:  E(RHF) =  -226.386269273     A.U. after   12 cycles
 SCF Done:  E(RHF) =  -226.386276033     A.U. after   12 cycles
 SCF Done:  E(RHF) =  -226.386286320     A.U. after   11 cycles
 SCF Done:  E(RHF) =  -226.386286357     A.U. after    9 cycles
 SCF Done:  E(RHF) =  -226.386286366     A.U. after    6 cycles
 Optimization completed.
    -- Stationary point found.

                          Input orientation:
 ---------------------------------------------------------------------
 Center     Atomic      Atomic             Coordinates (Angstroms)
 Number     Number       Type             X           Y           Z
 ---------------------------------------------------------------------
      1          6           0        0.727648    0.621533    0.034907
      2          6           0        1.384687   -0.511005   -0.011910
      3          1           0        1.193372    1.583689    0.063823
      4          1           0        2.455227   -0.522847   -0.003911
      5          1           0        0.877680   -1.456450   -0.023765
      6          8           0       -0.684805    0.664630    0.033422
      7          8           0       -1.161437    0.495831   -1.349426
      8          1           0       -0.804728   -0.378539   -1.589748
 ---------------------------------------------------------------------

 Alpha  occ. eigenvalues --  -20.52938 -20.52230 -11.25072 -11.19255  -1.46905
 Alpha  occ. eigenvalues --   -1.23302  -1.04867  -0.80514  -0.72540  -0.66185
 Alpha  occ. eigenvalues --   -0.63858  -0.59429  -0.56189  -0.50293  -0.45817
 Alpha  occ. eigenvalues --   -0.39654
 Alpha virt. eigenvalues --    0.14333   0.24176   0.28140   0.30045   0.31794
 Alpha virt. eigenvalues --    0.36186   0.49477   0.55332   0.87712   0.96049
 Alpha virt. eigenvalues --    0.98654   1.05427   1.08597   1.10705   1.24655

 Mulliken charges:
               1
     1  C    0.116127
     2  C   -0.476724
     3  H    0.250295
     4  H    0.238311
     5  H    0.235323
     6  O   -0.390424
     7  O   -0.371841
     8  H    0.398933
 Sum of Mulliken charges =   0.00000

 Dipole moment (field-independent basis, Debye):
    X=              2.7829    Y=             -1.8857    Z=             -0.6451  Tot=              3.4229
 Quadrupole moment (field-independent basis, Debye-Ang):
   XX=            -24.3296   YY=            -22.1612   ZZ=            -24.1607
   XY=              3.0524   XZ=             -0.3323   YZ=              2.7044

 Normal termination of Gaussian 09 at Fri Apr 12 15:02:20 2019.
