 Gaussian 09, Revision D.01,
 Gaussian 09:  AS64L-G09RevD.01 24-Apr-2013

 --------------------------------------------------------------------
 #p hf 3-21g scf=tight NoSymmetry guess=read opt=(tight,modredundant)
 --------------------------------------------------------------------

 -----------------------------------
 Geometry optimization at the 2D-PES
 -----------------------------------
 Symbolic Z-matrix:
 Charge =  0 Multiplicity = 1

 SCF Done:  E(RHF) =  -226.393069511     A.U. after   12 cycles
 SCF Done:  E(RHF) =  -226.393082545     A.U. after   11 cycles
 SCF Done:  E(RHF) =  -226.393090498     A.U. after   10 cycles
 SCF Done:  E(RHF) =  -226.393090579     A.U. after    9 cycles
 SCF Done:  E(RHF) =  -226.393090589     A.U. after    7 cycles
 SCF Done:  E(RHF) =  -226.393090590     A.U. after    7 cycles
 Optimization completed.
    -- Stationary point found.

                          Input orientation:
 ---------------------------------------------------------------------
 Center     Atomic      Atomic             Coordinates (Angstroms)
 Number     Number       Type             X           Y           Z
 ---------------------------------------------------------------------
      1          6           0        0.737558    0.633938    0.055085
      2          6           0        1.372579   -0.508190    0.003573
      3          1           0        1.211851    1.590940    0.119475
      4          1           0        2.442484   -0.539492   -0.016507
      5          1           0        0.835344   -1.433474   -0.034892
      6          8           0       -0.665728    0.676776   -0.020060
      7          8           0       -1.131462    1.507217    1.096728
      8          1           0       -1.295808    2.354561    0.646140
 ---------------------------------------------------------------------

 Alpha  occ. eigenvalues --  -20.53329 -20.52425 -11.24296 -11.17450  -1.47384
 Alpha  occ. eigenvalues --   -1.23631  -1.03270  -0.80073  -0.69645  -0.68924
 Alpha  occ. eigenvalues --   -0.64949  -0.56659  -0.55419  -0.50391  -0.47795
 Alpha  occ. eigenvalues --   -0.37447
 Alpha virt. eigenvalues --    0.16847   0.25116   0.27272   0.31457   0.33033
 Alpha virt. eigenvalues --    0.35601   0.49224   0.56872   0.89283   0.96981
 Alpha virt. eigenvalues --    0.99082   1.06773   1.10323   1.11818   1.23888

 Mulliken charges:
               1
     1  C    0.145645
     2  C   -0.476205
     3  H    0.230152
     4  H    0.227180
     5  H    0.248933
     6  O   -0.401462
     7  O   -0.380518
     8  H    0.406274
 Sum of Mulliken charges =   0.00000

 Dipole moment (field-independent basis, Debye):
    X=              1.5588    Y=              1.7184    Z=             -0.7048  Tot=              2.4247
 Quadrupole moment (field-independent basis, Debye-Ang):
   XX=            -22.2123   YY=            -14.8739   ZZ=            -27.3964
   XY=             -1.8882   XZ=              0.7505   YZ=              0.0150

 Normal termination of Gaussian 09 at Fri Apr 12 16:09:57 2019.
