 Gaussian 09, Revision D.01,
 Gaussian 09:  AS64L-G09RevD.01 24-Apr-2013

 --------------------------------------------------------------------
 #p hf 3-21g scf=tight NoSymmetry guess=read opt=(tight,modredundant)
 --------------------------------------------------------------------

 -----------------------------------
 Geometry optimization at the 2D-PES
 -----------------------------------
 Symbolic Z-matrix:
 Charge =  0 Multiplicity = 1

 SCF Done:  E(RHF) =  -226.393787296     A.U. after   13 cycles
 SCF Done:  E(RHF) =  -226.393795563     A.U. after   11 cycles
 SCF Done:  E(RHF) =  -226.393802890     A.U. after   10 cycles
 SCF Done:  E(RHF) =  -226.393802938     A.U. after    8 cycles
 SCF Done:  E(RHF) =  -226.393802940     A.U. after    7 cycles
 Optimization completed.
    -- Stationary point found.

                          Input orientation:
 ---------------------------------------------------------------------
 Center     Atomic      Atomic             Coordinates (Angstroms)
 Number     Number       Type             X           Y           Z
 ---------------------------------------------------------------------
      1          6           0        0.734813    0.636514    0.035837
      2          6           0        1.371417   -0.506156   -0.012567
      3          1           0        1.197340    1.596726    0.105461
      4          1           0        2.441314   -0.527565    0.000127
      5          1           0        0.846979   -1.438519   -0.061591
      6          8           0       -0.669114    0.679342    0.028581
      7          8           0       -1.073868    2.080643    0.090412
      8          1           0       -1.279443    2.259503   -0.844185
 ---------------------------------------------------------------------

 Alpha  occ. eigenvalues --  -20.53955 -20.53276 -11.24569 -11.16625  -1.48355
 Alpha  occ. eigenvalues --   -1.24161  -1.03046  -0.80101  -0.71895  -0.66873
 Alpha  occ. eigenvalues --   -0.65215  -0.57474  -0.54920  -0.52265  -0.48730
 Alpha  occ. eigenvalues --   -0.36224
 Alpha virt. eigenvalues --    0.19109   0.22072   0.27241   0.31857   0.33806
 Alpha virt. eigenvalues --    0.35715   0.49556   0.57484   0.90024   0.96742
 Alpha virt. eigenvalues --    0.99946   1.06060   1.10635   1.11767   1.23597

 Mulliken charges:
               1
     1  C    0.146961
     2  C   -0.507772
     3  H    0.258547
     4  H    0.227355
     5  H    0.240691
     6  O   -0.402856
     7  O   -0.375348
     8  H    0.412421
 Sum of Mulliken charges =   0.00000

 Dipole moment (field-independent basis, Debye):
    X=              1.2817    Y=              0.7947    Z=             -1.9373  Tot=              2.4550
 Quadrupole moment (field-independent basis, Debye-Ang):
   XX=            -22.1929   YY=            -19.8894   ZZ=            -24.0786
   XY=             -0.2040   XZ=              2.7899   YZ=             -4.3873

 Normal termination of Gaussian 09 at Fri Apr 12 15:39:50 2019.
