 Gaussian 09, Revision D.01,
 Gaussian 09:  AS64L-G09RevD.01 24-Apr-2013

 --------------------------------------------------------------------
 #p hf 3-21g scf=tight NoSymmetry guess=read opt=(tight,modredundant)
 --------------------------------------------------------------------

 -----------------------------------
 Geometry optimization at the 2D-PES
 -----------------------------------
 Symbolic Z-matrix:
 Charge =  0 Multiplicity = 1

 SCF Done:  E(RHF) =  -226.392409780     A.U. after   13 cycles
 SCF Done:  E(RHF) =  -226.392415497     A.U. after   10 cycles
 SCF Done:  E(RHF) =  -226.392418344     A.U. after   10 cycles
 SCF Done:  E(RHF) =  -226.392418415     A.U. after    8 cycles
 SCF Done:  E(RHF) =  -226.392418422     A.U. after    7 cycles
 SCF Done:  E(RHF) =  -226.392418423     A.U. after    6 cycles
 Optimization completed.
    -- Stationary point found.

                          Input orientation:
 ---------------------------------------------------------------------
 Center     Atomic      Atomic             Coordinates (Angstroms)
 Number     Number       Type             X           Y           Z
 ---------------------------------------------------------------------
      1          6           0        0.726577    0.625097    0.042382
      2          6           0        1.373757   -0.511235    0.000803
      3          1           0        1.192419    1.583426    0.126904
      4          1           0        2.444313   -0.532736    0.013769
      5          1           0        0.853102   -1.444959   -0.069919
      6          8           0       -0.681771    0.666450   -0.020824
      7          8           0       -1.153860    0.835952    1.366038
      8          1           0       -1.688948    0.029262    1.459229
 ---------------------------------------------------------------------

 Alpha  occ. eigenvalues --  -20.52552 -20.51778 -11.24006 -11.18050  -1.46447
 Alpha  occ. eigenvalues --   -1.23072  -1.03529  -0.79488  -0.70812  -0.66789
 Alpha  occ. eigenvalues --   -0.63742  -0.59481  -0.55867  -0.48608  -0.45530
 Alpha  occ. eigenvalues --   -0.38839
 Alpha virt. eigenvalues --    0.15497   0.26477   0.28769   0.31099   0.31532
 Alpha virt. eigenvalues --    0.36166   0.49242   0.56507   0.88731   0.97045
 Alpha virt. eigenvalues --    0.98137   1.06830   1.09794   1.12641   1.23330

 Mulliken charges:
               1
     1  C    0.141388
     2  C   -0.463044
     3  H    0.242979
     4  H    0.230235
     5  H    0.236012
     6  O   -0.410661
     7  O   -0.387805
     8  H    0.410896
 Sum of Mulliken charges =   0.00000

 Dipole moment (field-independent basis, Debye):
    X=              0.9138    Y=             -1.8363    Z=              0.4917  Tot=              2.1092
 Quadrupole moment (field-independent basis, Debye-Ang):
   XX=            -19.6276   YY=            -23.5097   ZZ=            -25.0514
   XY=              3.3377   XZ=             -2.0596   YZ=             -2.0040

 Normal termination of Gaussian 09 at Fri Apr 12 16:27:19 2019.
