 Gaussian 09, Revision D.01,
 Gaussian 09:  AS64L-G09RevD.01 24-Apr-2013

 --------------------------------------------------------------------
 #p hf 3-21g scf=tight NoSymmetry guess=read opt=(tight,modredundant)
 --------------------------------------------------------------------

 -----------------------------------
 Geometry optimization at the 2D-PES
 -----------------------------------
 Symbolic Z-matrix:
 Charge =  0 Multiplicity = 1

 SCF Done:  E(RHF) =  -226.389979278     A.U. after   13 cycles
 SCF Done:  E(RHF) =  -226.389995550     A.U. after   13 cycles
 SCF Done:  E(RHF) =  -226.390006872     A.U. after   10 cycles
 SCF Done:  E(RHF) =  -226.390007004     A.U. after    9 cycles
 SCF Done:  E(RHF) =  -226.390007021     A.U. after    8 cycles
 SCF Done:  E(RHF) =  -226.390007023     A.U. after    7 cycles
 Optimization completed.
    -- Stationary point found.

                          Input orientation:
 ---------------------------------------------------------------------
 Center     Atomic      Atomic             Coordinates (Angstroms)
 Number     Number       Type             X           Y           Z
 ---------------------------------------------------------------------
      1          6           0        0.735498    0.638335    0.024348
      2          6           0        1.375865   -0.502741   -0.019679
      3          1           0        1.196754    1.601776    0.077404
      4          1           0        2.445258   -0.531061    0.024300
      5          1           0        0.845706   -1.432042   -0.072628
      6          8           0       -0.671635    0.663877    0.050246
      7          8           0       -1.112741    1.603178   -0.989682
      8          1           0       -0.744583    1.210493   -1.803491
 ---------------------------------------------------------------------

 Alpha  occ. eigenvalues --  -20.53550 -20.52519 -11.24810 -11.18523  -1.47551
 Alpha  occ. eigenvalues --   -1.23706  -1.04169  -0.80677  -0.72544  -0.65877
 Alpha  occ. eigenvalues --   -0.63641  -0.59844  -0.55730  -0.50940  -0.46749
 Alpha  occ. eigenvalues --   -0.38578
 Alpha virt. eigenvalues --    0.15560   0.25407   0.27287   0.30637   0.31902
 Alpha virt. eigenvalues --    0.35578   0.48727   0.56225   0.88582   0.96519
 Alpha virt. eigenvalues --    0.98354   1.06096   1.09417   1.10388   1.24633

 Mulliken charges:
               1
     1  C    0.101321
     2  C   -0.474881
     3  H    0.252068
     4  H    0.232668
     5  H    0.248434
     6  O   -0.383365
     7  O   -0.377366
     8  H    0.401121
 Sum of Mulliken charges =   0.00000

 Dipole moment (field-independent basis, Debye):
    X=              2.6986    Y=             -0.8332    Z=             -1.7591  Tot=              3.3273
 Quadrupole moment (field-independent basis, Debye-Ang):
   XX=            -24.4355   YY=            -24.2632   ZZ=            -20.7563
   XY=              2.9407   XZ=              0.8396   YZ=             -1.0977

 Normal termination of Gaussian 09 at Fri Apr 12 15:19:42 2019.
