 Gaussian 09, Revision D.01,
 Gaussian 09:  AS64L-G09RevD.01 24-Apr-2013

 --------------------------------------------------------------------
 #p hf 3-21g scf=tight NoSymmetry guess=read opt=(tight,modredundant)
 --------------------------------------------------------------------

 -----------------------------------
 Geometry optimization at the 2D-PES
 -----------------------------------
 Symbolic Z-matrix:
 Charge =  0 Multiplicity = 1

 SCF Done:  E(RHF) =  -226.381556804     A.U. after   13 cycles
 SCF Done:  E(RHF) =  -226.381614049     A.U. after   12 cycles
 SCF Done:  E(RHF) =  -226.381615485     A.U. after    9 cycles
 SCF Done:  E(RHF) =  -226.381615959     A.U. after    9 cycles
 SCF Done:  E(RHF) =  -226.381615980     A.U. after    8 cycles
 SCF Done:  E(RHF) =  -226.381615983     A.U. after    6 cycles
 Optimization completed.
    -- Stationary point found.

                          Input orientation:
 ---------------------------------------------------------------------
 Center     Atomic      Atomic             Coordinates (Angstroms)
 Number     Number       Type             X           Y           Z
 ---------------------------------------------------------------------
      1          6           0        0.740395    0.555073    0.026351
      2          6           0        1.474010   -0.532390    0.029102
      3          1           0        1.161255    1.537653    0.071623
      4          1           0        2.538917   -0.440859    0.068001
      5          1           0        1.093111   -1.533463    0.015391
      6          8           0       -0.639951    0.692643   -0.022678
      7          8           0       -1.393178   -0.527239   -0.307769
      8          1           0       -0.728364   -1.227796   -0.410696
 ---------------------------------------------------------------------

 Alpha  occ. eigenvalues --  -20.54917 -20.53390 -11.26719 -11.18378  -1.48697
 Alpha  occ. eigenvalues --   -1.25275  -1.05507  -0.81633  -0.73688  -0.68269
 Alpha  occ. eigenvalues --   -0.64447  -0.58765  -0.54748  -0.54160  -0.49312
 Alpha  occ. eigenvalues --   -0.37313
 Alpha virt. eigenvalues --    0.17887   0.20777   0.26598   0.27273   0.35994
 Alpha virt. eigenvalues --    0.37046   0.49337   0.60932   0.87962   0.95140
 Alpha virt. eigenvalues --    1.01561   1.05307   1.07620   1.10702   1.23774

 Mulliken charges:
               1
     1  C    0.151030
     2  C   -0.541521
     3  H    0.275500
     4  H    0.243496
     5  H    0.206680
     6  O   -0.390027
     7  O   -0.362926
     8  H    0.417768
 Sum of Mulliken charges =   0.00000

 Dipole moment (field-independent basis, Debye):
    X=              2.9326    Y=             -1.3114    Z=             -0.1728  Tot=              3.2171
 Quadrupole moment (field-independent basis, Debye-Ang):
   XX=            -25.8991   YY=            -19.6115   ZZ=            -25.7138
   XY=              2.1515   XZ=             -0.0830   YZ=              0.8685

 Normal termination of Gaussian 09 at Fri Apr 12 14:57:31 2019.
