 Gaussian 09, Revision D.01,
 Gaussian 09:  AS64L-G09RevD.01 24-Apr-2013

 --------------------------------------------------------------------
 #p hf 3-21g scf=tight NoSymmetry guess=read opt=(tight,modredundant)
 --------------------------------------------------------------------

 -----------------------------------
 Geometry optimization at the 2D-PES
 -----------------------------------
 Symbolic Z-matrix:
 Charge =  0 Multiplicity = 1

 SCF Done:  E(RHF) =  -226.392046534     A.U. after   13 cycles
 SCF Done:  E(RHF) =  -226.392051102     A.U. after   11 cycles
 SCF Done:  E(RHF) =  -226.392054186     A.U. after   10 cycles
 SCF Done:  E(RHF) =  -226.392054222     A.U. after    8 cycles
 SCF Done:  E(RHF) =  -226.392054224     A.U. after    6 cycles
 Optimization completed.
    -- Stationary point found.

                          Input orientation:
 ---------------------------------------------------------------------
 Center     Atomic      Atomic             Coordinates (Angstroms)
 Number     Number       Type             X           Y           Z
 ---------------------------------------------------------------------
      1          6           0        0.733598    0.605693    0.052583
      2          6           0        1.390616   -0.522491   -0.019582
      3          1           0        1.198234    1.569104    0.098824
      4          1           0        2.461403   -0.528570   -0.014774
      5          1           0        0.879270   -1.462206   -0.058510
      6          8           0       -0.670575    0.692627    0.012145
      7          8           0       -1.208790   -0.076961    1.147456
      8          1           0       -1.929470    0.518624    1.415607
 ---------------------------------------------------------------------

 Alpha  occ. eigenvalues --  -20.52382 -20.51789 -11.23618 -11.17100  -1.46261
 Alpha  occ. eigenvalues --   -1.23005  -1.02979  -0.79047  -0.70634  -0.65290
 Alpha  occ. eigenvalues --   -0.64131  -0.60109  -0.54836  -0.49648  -0.45230
 Alpha  occ. eigenvalues --   -0.37391
 Alpha virt. eigenvalues --    0.16137   0.26172   0.29416   0.30648   0.32552
 Alpha virt. eigenvalues --    0.37044   0.50086   0.57228   0.88854   0.97571
 Alpha virt. eigenvalues --    0.99168   1.07042   1.10536   1.12826   1.23496

 Mulliken charges:
               1
     1  C    0.133927
     2  C   -0.458947
     3  H    0.239927
     4  H    0.223989
     5  H    0.252259
     6  O   -0.419156
     7  O   -0.386891
     8  H    0.414892
 Sum of Mulliken charges =   0.00000

 Dipole moment (field-independent basis, Debye):
    X=              0.4371    Y=              0.8869    Z=              0.8725  Tot=              1.3187
 Quadrupole moment (field-independent basis, Debye-Ang):
   XX=            -17.9565   YY=            -21.7153   ZZ=            -24.0729
   XY=             -1.2197   XZ=             -3.0977   YZ=              2.1560

 Normal termination of Gaussian 09 at Fri Apr 12 17:01:36 2019.
