 Gaussian 09, Revision D.01,
 Gaussian 09:  AS64L-G09RevD.01 24-Apr-2013

 --------------------------------------------------------------------
 #p hf 3-21g scf=tight NoSymmetry guess=read opt=(tight,modredundant)
 --------------------------------------------------------------------

 -----------------------------------
 Geometry optimization at the 2D-PES
 -----------------------------------
 Symbolic Z-matrix:
 Charge =  0 Multiplicity = 1

 SCF Done:  E(RHF) =  -226.378213242     A.U. after   13 cycles
 SCF Done:  E(RHF) =  -226.378217313     A.U. after   11 cycles
 SCF Done:  E(RHF) =  -226.378217793     A.U. after    9 cycles
 SCF Done:  E(RHF) =  -226.378217887     A.U. after    8 cycles
 SCF Done:  E(RHF) =  -226.378217889     A.U. after    6 cycles
 Optimization completed.
    -- Stationary point found.

                          Input orientation:
 ---------------------------------------------------------------------
 Center     Atomic      Atomic             Coordinates (Angstroms)
 Number     Number       Type             X           Y           Z
 ---------------------------------------------------------------------
      1          6           0        0.770000    0.628851    0.051315
      2          6           0        1.384723   -0.525255    0.001429
      3          1           0        1.289685    1.566620    0.089639
      4          1           0        2.453822   -0.570202    0.000903
      5          1           0        0.836242   -1.443493   -0.043149
      6          8           0       -0.626867    0.703946   -0.006136
      7          8           0       -1.141966    2.043679    0.295847
      8          1           0       -0.360620    2.625319    0.313473
 ---------------------------------------------------------------------

 Alpha  occ. eigenvalues --  -20.54202 -20.53326 -11.26055 -11.17670  -1.48048
 Alpha  occ. eigenvalues --   -1.24777  -1.04217  -0.82259  -0.71968  -0.67075
 Alpha  occ. eigenvalues --   -0.63971  -0.58800  -0.55452  -0.52758  -0.49288
 Alpha  occ. eigenvalues --   -0.36514
 Alpha virt. eigenvalues --    0.17870   0.21935   0.23141   0.30966   0.34136
 Alpha virt. eigenvalues --    0.35930   0.51871   0.56331   0.88796   0.95735
 Alpha virt. eigenvalues --    0.99172   1.05437   1.09846   1.11244   1.22823

 Mulliken charges:
               1
     1  C    0.128927
     2  C   -0.491842
     3  H    0.224435
     4  H    0.230838
     5  H    0.251149
     6  O   -0.383234
     7  O   -0.359592
     8  H    0.399318
 Sum of Mulliken charges =   0.00000

 Dipole moment (field-independent basis, Debye):
    X=              3.3374    Y=              1.2838    Z=              0.1352  Tot=              3.5783
 Quadrupole moment (field-independent basis, Debye-Ang):
   XX=            -25.3168   YY=            -16.1190   ZZ=            -25.8118
   XY=              3.9860   XZ=              0.4405   YZ=              0.7243

 Normal termination of Gaussian 09 at Fri Apr 12 15:43:57 2019.
