 Gaussian 09, Revision D.01,
 Gaussian 09:  AS64L-G09RevD.01 24-Apr-2013

 --------------------------------------------------------------------
 #p hf 3-21g scf=tight NoSymmetry guess=read opt=(tight,modredundant)
 --------------------------------------------------------------------

 -----------------------------------
 Geometry optimization at the 2D-PES
 -----------------------------------
 Symbolic Z-matrix:
 Charge =  0 Multiplicity = 1

 SCF Done:  E(RHF) =  -226.392661942     A.U. after   13 cycles
 SCF Done:  E(RHF) =  -226.392662643     A.U. after    9 cycles
 SCF Done:  E(RHF) =  -226.392662717     A.U. after    8 cycles
 SCF Done:  E(RHF) =  -226.392662741     A.U. after    8 cycles
 SCF Done:  E(RHF) =  -226.392662742     A.U. after    6 cycles
 Optimization completed.
    -- Stationary point found.

                          Input orientation:
 ---------------------------------------------------------------------
 Center     Atomic      Atomic             Coordinates (Angstroms)
 Number     Number       Type             X           Y           Z
 ---------------------------------------------------------------------
      1          6           0        0.725751    0.623319    0.040906
      2          6           0        1.370624   -0.513491   -0.002424
      3          1           0        1.195145    1.580823    0.124159
      4          1           0        2.441155   -0.537400    0.015412
      5          1           0        0.844366   -1.444272   -0.061607
      6          8           0       -0.679968    0.671425   -0.023910
      7          8           0       -1.156396    0.592491    1.374591
      8          1           0       -2.113721    0.633491    1.207587
 ---------------------------------------------------------------------

 Alpha  occ. eigenvalues --  -20.52059 -20.51364 -11.23496 -11.17653  -1.45762
 Alpha  occ. eigenvalues --   -1.22832  -1.03033  -0.79001  -0.69278  -0.67798
 Alpha  occ. eigenvalues --   -0.63999  -0.57528  -0.55160  -0.51110  -0.43434
 Alpha  occ. eigenvalues --   -0.38401
 Alpha virt. eigenvalues --    0.15455   0.27919   0.29234   0.30667   0.31992
 Alpha virt. eigenvalues --    0.36645   0.49579   0.56904   0.89054   0.97577
 Alpha virt. eigenvalues --    0.99221   1.07090   1.10389   1.12295   1.23816

 Mulliken charges:
               1
     1  C    0.140157
     2  C   -0.448191
     3  H    0.236080
     4  H    0.226947
     5  H    0.245685
     6  O   -0.421806
     7  O   -0.392962
     8  H    0.414089
 Sum of Mulliken charges =   0.00000

 Dipole moment (field-independent basis, Debye):
    X=              0.0567    Y=             -0.2029    Z=             -0.0378  Tot=              0.2140
 Quadrupole moment (field-independent basis, Debye-Ang):
   XX=            -15.9201   YY=            -22.1154   ZZ=            -26.5458
   XY=             -0.2873   XZ=             -2.1612   YZ=              0.3014

 Normal termination of Gaussian 09 at Fri Apr 12 16:40:03 2019.
