 Gaussian 09, Revision D.01,
 Gaussian 09:  AS64L-G09RevD.01 24-Apr-2013

 --------------------------------------------------------------------
 #p hf 3-21g scf=tight NoSymmetry guess=read opt=(tight,modredundant)
 --------------------------------------------------------------------

 -----------------------------------
 Geometry optimization at the 2D-PES
 -----------------------------------
 Symbolic Z-matrix:
 Charge =  0 Multiplicity = 1

 SCF Done:  E(RHF) =  -226.393286415     A.U. after   13 cycles
 SCF Done:  E(RHF) =  -226.393300000     A.U. after   12 cycles
 SCF Done:  E(RHF) =  -226.393312507     A.U. after   11 cycles
 SCF Done:  E(RHF) =  -226.393312582     A.U. after    9 cycles
 SCF Done:  E(RHF) =  -226.393312592     A.U. after    8 cycles
 Optimization completed.
    -- Stationary point found.

                          Input orientation:
 ---------------------------------------------------------------------
 Center     Atomic      Atomic             Coordinates (Angstroms)
 Number     Number       Type             X           Y           Z
 ---------------------------------------------------------------------
      1          6           0        0.738240    0.583107    0.068778
      2          6           0        1.416257   -0.530986   -0.035847
      3          1           0        1.185021    1.555114    0.090594
      4          1           0        2.485771   -0.507358   -0.064467
      5          1           0        0.939337   -1.488440   -0.041218
      6          8           0       -0.658605    0.705654    0.048277
      7          8           0       -1.266330   -0.389209    0.803830
      8          1           0       -1.672471   -0.905172    0.085873
 ---------------------------------------------------------------------

 Alpha  occ. eigenvalues --  -20.53525 -20.52824 -11.24432 -11.17034  -1.47686
 Alpha  occ. eigenvalues --   -1.23819  -1.03553  -0.79482  -0.70199  -0.69321
 Alpha  occ. eigenvalues --   -0.65192  -0.57002  -0.54174  -0.51771  -0.48137
 Alpha  occ. eigenvalues --   -0.36810
 Alpha virt. eigenvalues --    0.17020   0.24217   0.29009   0.29607   0.32863
 Alpha virt. eigenvalues --    0.37118   0.49875   0.57601   0.88674   0.96762
 Alpha virt. eigenvalues --    0.99761   1.06746   1.09911   1.12260   1.23488

 Mulliken charges:
               1
     1  C    0.147833
     2  C   -0.489048
     3  H    0.256452
     4  H    0.227480
     5  H    0.227972
     6  O   -0.410251
     7  O   -0.373481
     8  H    0.413042
 Sum of Mulliken charges =   0.00000

 Dipole moment (field-independent basis, Debye):
    X=              0.8834    Y=             -1.2760    Z=             -1.2864  Tot=              2.0158
 Quadrupole moment (field-independent basis, Debye-Ang):
   XX=            -20.4251   YY=            -20.8859   ZZ=            -27.0095
   XY=              3.9324   XZ=              1.9435   YZ=              0.8169

 Normal termination of Gaussian 09 at Fri Apr 12 17:15:58 2019.
