 Gaussian 09, Revision D.01,
 Gaussian 09:  AS64L-G09RevD.01 24-Apr-2013

 --------------------------------------------------------------------
 #p hf 3-21g scf=tight NoSymmetry guess=read opt=(tight,modredundant)
 --------------------------------------------------------------------

 -----------------------------------
 Geometry optimization at the 2D-PES
 -----------------------------------
 Symbolic Z-matrix:
 Charge =  0 Multiplicity = 1

 SCF Done:  E(RHF) =  -226.393438870     A.U. after   12 cycles
 SCF Done:  E(RHF) =  -226.393450737     A.U. after   11 cycles
 SCF Done:  E(RHF) =  -226.393460695     A.U. after   10 cycles
 SCF Done:  E(RHF) =  -226.393460757     A.U. after    8 cycles
 SCF Done:  E(RHF) =  -226.393460764     A.U. after    8 cycles
 SCF Done:  E(RHF) =  -226.393460764     A.U. after    6 cycles
 Optimization completed.
    -- Stationary point found.

                          Input orientation:
 ---------------------------------------------------------------------
 Center     Atomic      Atomic             Coordinates (Angstroms)
 Number     Number       Type             X           Y           Z
 ---------------------------------------------------------------------
      1          6           0        0.739641    0.636738    0.055179
      2          6           0        1.371911   -0.507381    0.000168
      3          1           0        1.212744    1.593442    0.116361
      4          1           0        2.441601   -0.536666   -0.020709
      5          1           0        0.837416   -1.434463   -0.034416
      6          8           0       -0.662178    0.683118   -0.011910
      7          8           0       -1.103809    1.848834    0.754634
      8          1           0       -1.263414    2.491912    0.041328
 ---------------------------------------------------------------------

 Alpha  occ. eigenvalues --  -20.53726 -20.52893 -11.24508 -11.16976  -1.47954
 Alpha  occ. eigenvalues --   -1.23979  -1.03141  -0.80136  -0.70632  -0.68346
 Alpha  occ. eigenvalues --   -0.65236  -0.56313  -0.54745  -0.52379  -0.48339
 Alpha  occ. eigenvalues --   -0.36663
 Alpha virt. eigenvalues --    0.18015   0.23589   0.27039   0.31747   0.33381
 Alpha virt. eigenvalues --    0.35612   0.49402   0.57212   0.89742   0.96864
 Alpha virt. eigenvalues --    0.99583   1.06511   1.10521   1.11766   1.23689

 Mulliken charges:
               1
     1  C    0.152485
     2  C   -0.494518
     3  H    0.240883
     4  H    0.227019
     5  H    0.245156
     6  O   -0.402970
     7  O   -0.377143
     8  H    0.409087
 Sum of Mulliken charges =   0.00000

 Dipole moment (field-independent basis, Debye):
    X=              1.4583    Y=              1.5347    Z=             -1.2987  Tot=              2.4837
 Quadrupole moment (field-independent basis, Debye-Ang):
   XX=            -22.3349   YY=            -15.7250   ZZ=            -26.9010
   XY=             -1.2805   XZ=              1.6246   YZ=             -2.5356

 Normal termination of Gaussian 09 at Fri Apr 12 15:57:29 2019.
