 Gaussian 09, Revision D.01,
 Gaussian 09:  AS64L-G09RevD.01 24-Apr-2013

 --------------------------------------------------------------------
 #p hf 3-21g scf=tight NoSymmetry guess=read opt=(tight,modredundant)
 --------------------------------------------------------------------

 -----------------------------------
 Geometry optimization at the 2D-PES
 -----------------------------------
 Symbolic Z-matrix:
 Charge =  0 Multiplicity = 1

 SCF Done:  E(RHF) =  -226.393628874     A.U. after   13 cycles
 SCF Done:  E(RHF) =  -226.393631265     A.U. after   11 cycles
 SCF Done:  E(RHF) =  -226.393632440     A.U. after   10 cycles
 SCF Done:  E(RHF) =  -226.393632471     A.U. after    7 cycles
 SCF Done:  E(RHF) =  -226.393632474     A.U. after    6 cycles
 Optimization completed.
    -- Stationary point found.

                          Input orientation:
 ---------------------------------------------------------------------
 Center     Atomic      Atomic             Coordinates (Angstroms)
 Number     Number       Type             X           Y           Z
 ---------------------------------------------------------------------
      1          6           0        0.725647    0.628128    0.045673
      2          6           0        1.369466   -0.510000    0.004047
      3          1           0        1.190901    1.586858    0.128805
      4          1           0        2.439992   -0.533849    0.008196
      5          1           0        0.843778   -1.441146   -0.057499
      6          8           0       -0.679085    0.667176   -0.025586
      7          8           0       -1.137670    1.074868    1.317525
      8          1           0       -1.909491    0.490026    1.403752
 ---------------------------------------------------------------------

 Alpha  occ. eigenvalues --  -20.52536 -20.51670 -11.23875 -11.17708  -1.46342
 Alpha  occ. eigenvalues --   -1.23148  -1.03208  -0.79383  -0.70198  -0.67327
 Alpha  occ. eigenvalues --   -0.63266  -0.59468  -0.55818  -0.49504  -0.44875
 Alpha  occ. eigenvalues --   -0.38369
 Alpha virt. eigenvalues --    0.15945   0.26877   0.28741   0.31127   0.31960
 Alpha virt. eigenvalues --    0.36157   0.49365   0.56794   0.89126   0.97322
 Alpha virt. eigenvalues --    0.98750   1.07098   1.10172   1.12775   1.23013

 Mulliken charges:
               1
     1  C    0.149475
     2  C   -0.466064
     3  H    0.243244
     4  H    0.228423
     5  H    0.238855
     6  O   -0.416202
     7  O   -0.392808
     8  H    0.415077
 Sum of Mulliken charges =   0.00000

 Dipole moment (field-independent basis, Debye):
    X=              0.3773    Y=             -1.3428    Z=              0.4783  Tot=              1.4745
 Quadrupole moment (field-independent basis, Debye-Ang):
   XX=            -17.7434   YY=            -24.0314   ZZ=            -25.1166
   XY=              1.9705   XZ=             -2.7549   YZ=             -1.2004

 Normal termination of Gaussian 09 at Fri Apr 12 16:26:10 2019.
