 Gaussian 09, Revision D.01,
 Gaussian 09:  AS64L-G09RevD.01 24-Apr-2013

 --------------------------------------------------------------------
 #p hf 3-21g scf=tight NoSymmetry guess=read opt=(tight,modredundant)
 --------------------------------------------------------------------

 -----------------------------------
 Geometry optimization at the 2D-PES
 -----------------------------------
 Symbolic Z-matrix:
 Charge =  0 Multiplicity = 1

 SCF Done:  E(RHF) =  -226.382576612     A.U. after   13 cycles
 SCF Done:  E(RHF) =  -226.382627518     A.U. after   13 cycles
 SCF Done:  E(RHF) =  -226.382655521     A.U. after   12 cycles
 SCF Done:  E(RHF) =  -226.382657571     A.U. after   11 cycles
 SCF Done:  E(RHF) =  -226.382657623     A.U. after    9 cycles
 SCF Done:  E(RHF) =  -226.382657632     A.U. after    6 cycles
 Optimization completed.
    -- Stationary point found.

                          Input orientation:
 ---------------------------------------------------------------------
 Center     Atomic      Atomic             Coordinates (Angstroms)
 Number     Number       Type             X           Y           Z
 ---------------------------------------------------------------------
      1          6           0        0.750780    0.556620    0.019535
      2          6           0        1.475233   -0.534699   -0.055469
      3          1           0        1.177380    1.535946    0.078797
      4          1           0        2.541690   -0.454199   -0.050086
      5          1           0        1.079406   -1.524070   -0.163598
      6          8           0       -0.630217    0.693173    0.052804
      7          8           0       -1.377622   -0.550887    0.226235
      8          1           0       -0.709512   -1.222474    0.445678
 ---------------------------------------------------------------------

 Alpha  occ. eigenvalues --  -20.54916 -20.53392 -11.26698 -11.18348  -1.48749
 Alpha  occ. eigenvalues --   -1.25207  -1.05483  -0.81600  -0.73595  -0.68305
 Alpha  occ. eigenvalues --   -0.64469  -0.58627  -0.54860  -0.54239  -0.49187
 Alpha  occ. eigenvalues --   -0.37359
 Alpha virt. eigenvalues --    0.17791   0.21058   0.26827   0.27480   0.35444
 Alpha virt. eigenvalues --    0.36847   0.49296   0.60203   0.87898   0.95243
 Alpha virt. eigenvalues --    1.01456   1.05353   1.07692   1.10790   1.23566

 Mulliken charges:
               1
     1  C    0.150933
     2  C   -0.544172
     3  H    0.275073
     4  H    0.242552
     5  H    0.211456
     6  O   -0.389641
     7  O   -0.362912
     8  H    0.416712
 Sum of Mulliken charges =   0.00000

 Dipole moment (field-independent basis, Debye):
    X=              2.9438    Y=             -1.2579    Z=              0.4377  Tot=              3.2311
 Quadrupole moment (field-independent basis, Debye-Ang):
   XX=            -25.8364   YY=            -19.7167   ZZ=            -25.5336
   XY=              2.0477   XZ=              0.0171   YZ=             -0.6642

 Normal termination of Gaussian 09 at Fri Apr 12 17:43:57 2019.
