 Gaussian 09, Revision D.01,
 Gaussian 09:  AS64L-G09RevD.01 24-Apr-2013

 --------------------------------------------------------------------
 #p hf 3-21g scf=tight NoSymmetry guess=read opt=(tight,modredundant)
 --------------------------------------------------------------------

 -----------------------------------
 Geometry optimization at the 2D-PES
 -----------------------------------
 Symbolic Z-matrix:
 Charge =  0 Multiplicity = 1

 SCF Done:  E(RHF) =  -226.390450961     A.U. after   13 cycles
 SCF Done:  E(RHF) =  -226.390464602     A.U. after   12 cycles
 SCF Done:  E(RHF) =  -226.390477480     A.U. after   11 cycles
 SCF Done:  E(RHF) =  -226.390477560     A.U. after    9 cycles
 SCF Done:  E(RHF) =  -226.390477572     A.U. after    8 cycles
 SCF Done:  E(RHF) =  -226.390477573     A.U. after    6 cycles
 Optimization completed.
    -- Stationary point found.

                          Input orientation:
 ---------------------------------------------------------------------
 Center     Atomic      Atomic             Coordinates (Angstroms)
 Number     Number       Type             X           Y           Z
 ---------------------------------------------------------------------
      1          6           0        0.744391    0.636042    0.051495
      2          6           0        1.374712   -0.509141   -0.003960
      3          1           0        1.224886    1.589784    0.111053
      4          1           0        2.444355   -0.539073   -0.022304
      5          1           0        0.840009   -1.436159   -0.037764
      6          8           0       -0.658758    0.686280    0.001607
      7          8           0       -1.101597    1.966943    0.548443
      8          1           0       -0.961401    2.568795   -0.205340
 ---------------------------------------------------------------------

 Alpha  occ. eigenvalues --  -20.53982 -20.53220 -11.24895 -11.17085  -1.48266
 Alpha  occ. eigenvalues --   -1.24172  -1.03413  -0.80653  -0.71262  -0.67874
 Alpha  occ. eigenvalues --   -0.65263  -0.56557  -0.54926  -0.52829  -0.48707
 Alpha  occ. eigenvalues --   -0.36649
 Alpha virt. eigenvalues --    0.18362   0.22489   0.26126   0.31603   0.33696
 Alpha virt. eigenvalues --    0.35459   0.49651   0.57039   0.89471   0.96626
 Alpha virt. eigenvalues --    0.99264   1.06288   1.10216   1.11176   1.24574

 Mulliken charges:
               1
     1  C    0.144939
     2  C   -0.497594
     3  H    0.239508
     4  H    0.228038
     5  H    0.245937
     6  O   -0.395656
     7  O   -0.369872
     8  H    0.404701
 Sum of Mulliken charges =   0.00000

 Dipole moment (field-independent basis, Debye):
    X=              2.0523    Y=              1.4607    Z=             -1.4127  Tot=              2.8882
 Quadrupole moment (field-independent basis, Debye-Ang):
   XX=            -23.7500   YY=            -15.9080   ZZ=            -26.2336
   XY=              0.4822   XZ=              1.6588   YZ=             -3.2188

 Normal termination of Gaussian 09 at Fri Apr 12 15:51:59 2019.
