 Gaussian 09, Revision D.01,
 Gaussian 09:  AS64L-G09RevD.01 24-Apr-2013

 --------------------------------------------------------------------
 #p hf 3-21g scf=tight NoSymmetry guess=read opt=(tight,modredundant)
 --------------------------------------------------------------------

 -----------------------------------
 Geometry optimization at the 2D-PES
 -----------------------------------
 Symbolic Z-matrix:
 Charge =  0 Multiplicity = 1

 SCF Done:  E(RHF) =  -226.380474628     A.U. after   13 cycles
 SCF Done:  E(RHF) =  -226.380477655     A.U. after   10 cycles
 SCF Done:  E(RHF) =  -226.380478151     A.U. after    9 cycles
 SCF Done:  E(RHF) =  -226.380478172     A.U. after    7 cycles
 SCF Done:  E(RHF) =  -226.380478175     A.U. after    6 cycles
 Optimization completed.
    -- Stationary point found.

                          Input orientation:
 ---------------------------------------------------------------------
 Center     Atomic      Atomic             Coordinates (Angstroms)
 Number     Number       Type             X           Y           Z
 ---------------------------------------------------------------------
      1          6           0        0.766994    0.627945    0.061508
      2          6           0        1.385952   -0.523367    0.002045
      3          1           0        1.268359    1.576866    0.069430
      4          1           0        2.454750   -0.567917   -0.038624
      5          1           0        0.836022   -1.441621   -0.025393
      6          8           0       -0.631987    0.695150   -0.010643
      7          8           0       -1.166437    1.697474    0.929335
      8          1           0       -0.385822    2.071542    1.377323
 ---------------------------------------------------------------------

 Alpha  occ. eigenvalues --  -20.53716 -20.52562 -11.25516 -11.18607  -1.47266
 Alpha  occ. eigenvalues --   -1.24235  -1.04431  -0.81913  -0.71768  -0.67447
 Alpha  occ. eigenvalues --   -0.62198  -0.59285  -0.55793  -0.52947  -0.46963
 Alpha  occ. eigenvalues --   -0.37770
 Alpha virt. eigenvalues --    0.15123   0.24339   0.25828   0.30468   0.33104
 Alpha virt. eigenvalues --    0.35195   0.49802   0.55948   0.88200   0.95944
 Alpha virt. eigenvalues --    0.99052   1.06000   1.09519   1.11042   1.23629

 Mulliken charges:
               1
     1  C    0.095252
     2  C   -0.470118
     3  H    0.233497
     4  H    0.232640
     5  H    0.255584
     6  O   -0.375774
     7  O   -0.370026
     8  H    0.398946
 Sum of Mulliken charges =   0.00000

 Dipole moment (field-independent basis, Debye):
    X=              3.5025    Y=              0.5660    Z=              1.0280  Tot=              3.6939
 Quadrupole moment (field-independent basis, Debye-Ang):
   XX=            -25.2665   YY=            -19.1344   ZZ=            -23.5291
   XY=              3.4764   XZ=              0.9622   YZ=              2.9821

 Normal termination of Gaussian 09 at Fri Apr 12 16:06:22 2019.
