 Gaussian 09, Revision D.01,
 Gaussian 09:  AS64L-G09RevD.01 24-Apr-2013

 --------------------------------------------------------------------
 #p hf 3-21g scf=tight NoSymmetry guess=read opt=(tight,modredundant)
 --------------------------------------------------------------------

 -----------------------------------
 Geometry optimization at the 2D-PES
 -----------------------------------
 Symbolic Z-matrix:
 Charge =  0 Multiplicity = 1

 SCF Done:  E(RHF) =  -226.394418145     A.U. after   13 cycles
 SCF Done:  E(RHF) =  -226.394420162     A.U. after   11 cycles
 SCF Done:  E(RHF) =  -226.394421244     A.U. after   10 cycles
 SCF Done:  E(RHF) =  -226.394421278     A.U. after    8 cycles
 SCF Done:  E(RHF) =  -226.394421280     A.U. after    6 cycles
 Optimization completed.
    -- Stationary point found.

                          Input orientation:
 ---------------------------------------------------------------------
 Center     Atomic      Atomic             Coordinates (Angstroms)
 Number     Number       Type             X           Y           Z
 ---------------------------------------------------------------------
      1          6           0        0.724975    0.629602    0.044242
      2          6           0        1.367554   -0.508837    0.003704
      3          1           0        1.188924    1.588910    0.132494
      4          1           0        2.438033   -0.534448    0.008586
      5          1           0        0.837401   -1.437452   -0.051839
      6          8           0       -0.678182    0.665536   -0.030251
      7          8           0       -1.131689    1.072701    1.315234
      8          1           0       -2.024005    1.386032    1.089508
 ---------------------------------------------------------------------

 Alpha  occ. eigenvalues --  -20.52438 -20.51576 -11.23645 -11.17476  -1.46206
 Alpha  occ. eigenvalues --   -1.23098  -1.02944  -0.79212  -0.69146  -0.68158
 Alpha  occ. eigenvalues --   -0.64458  -0.57019  -0.55220  -0.51373  -0.44459
 Alpha  occ. eigenvalues --   -0.37900
 Alpha virt. eigenvalues --    0.16016   0.27410   0.28888   0.31218   0.32198
 Alpha virt. eigenvalues --    0.36279   0.49405   0.57040   0.89388   0.97472
 Alpha virt. eigenvalues --    0.99521   1.07210   1.10624   1.12461   1.23390

 Mulliken charges:
               1
     1  C    0.148186
     2  C   -0.460303
     3  H    0.237094
     4  H    0.226549
     5  H    0.246322
     6  O   -0.418600
     7  O   -0.394051
     8  H    0.414803
 Sum of Mulliken charges =   0.00000

 Dipole moment (field-independent basis, Debye):
    X=              0.1300    Y=              0.5192    Z=             -0.1923  Tot=              0.5687
 Quadrupole moment (field-independent basis, Debye-Ang):
   XX=            -16.6963   YY=            -20.3961   ZZ=            -26.8464
   XY=             -2.4453   XZ=             -1.6410   YZ=              0.6369

 Normal termination of Gaussian 09 at Fri Apr 12 16:24:41 2019.
