 Gaussian 09, Revision D.01,
 Gaussian 09:  AS64L-G09RevD.01 24-Apr-2013

 --------------------------------------------------------------------
 #p hf 3-21g scf=tight NoSymmetry guess=read opt=(tight,modredundant)
 --------------------------------------------------------------------

 -----------------------------------
 Geometry optimization at the 2D-PES
 -----------------------------------
 Symbolic Z-matrix:
 Charge =  0 Multiplicity = 1

 SCF Done:  E(RHF) =  -226.393483816     A.U. after   13 cycles
 SCF Done:  E(RHF) =  -226.393491137     A.U. after   11 cycles
 SCF Done:  E(RHF) =  -226.393497316     A.U. after   10 cycles
 SCF Done:  E(RHF) =  -226.393497344     A.U. after    8 cycles
 SCF Done:  E(RHF) =  -226.393497347     A.U. after    6 cycles
 Optimization completed.
    -- Stationary point found.

                          Input orientation:
 ---------------------------------------------------------------------
 Center     Atomic      Atomic             Coordinates (Angstroms)
 Number     Number       Type             X           Y           Z
 ---------------------------------------------------------------------
      1          6           0        0.734714    0.638160    0.022172
      2          6           0        1.371800   -0.504587   -0.018414
      3          1           0        1.195059    1.599794    0.091109
      4          1           0        2.441116   -0.528921    0.021007
      5          1           0        0.846123   -1.435833   -0.077056
      6          8           0       -0.669955    0.676074    0.047427
      7          8           0       -1.083374    2.008482   -0.387645
      8          1           0       -1.163761    1.885997   -1.350724
 ---------------------------------------------------------------------

 Alpha  occ. eigenvalues --  -20.53907 -20.53093 -11.24591 -11.17094  -1.48216
 Alpha  occ. eigenvalues --   -1.24049  -1.03307  -0.80185  -0.72351  -0.65939
 Alpha  occ. eigenvalues --   -0.64904  -0.59011  -0.55167  -0.51032  -0.48520
 Alpha  occ. eigenvalues --   -0.36847
 Alpha virt. eigenvalues --    0.17875   0.23237   0.27339   0.31535   0.33436
 Alpha virt. eigenvalues --    0.35692   0.49327   0.57190   0.89737   0.96576
 Alpha virt. eigenvalues --    0.99615   1.05916   1.10311   1.11280   1.24153

 Mulliken charges:
               1
     1  C    0.135041
     2  C   -0.500972
     3  H    0.259271
     4  H    0.228864
     5  H    0.241713
     6  O   -0.396867
     7  O   -0.376629
     8  H    0.409579
 Sum of Mulliken charges =   0.00000

 Dipole moment (field-independent basis, Debye):
    X=              1.5982    Y=              0.0524    Z=             -2.0897  Tot=              2.6313
 Quadrupole moment (field-independent basis, Debye-Ang):
   XX=            -22.8104   YY=            -22.7346   ZZ=            -21.9381
   XY=              1.1851   XZ=              2.8672   YZ=             -3.6957

 Normal termination of Gaussian 09 at Fri Apr 12 15:31:12 2019.
