 Gaussian 09, Revision D.01,
 Gaussian 09:  AS64L-G09RevD.01 24-Apr-2013

 --------------------------------------------------------------------
 #p hf 3-21g scf=tight NoSymmetry guess=read opt=(tight,modredundant)
 --------------------------------------------------------------------

 -----------------------------------
 Geometry optimization at the 2D-PES
 -----------------------------------
 Symbolic Z-matrix:
 Charge =  0 Multiplicity = 1

 SCF Done:  E(RHF) =  -226.396899217     A.U. after   13 cycles
 SCF Done:  E(RHF) =  -226.396902794     A.U. after   11 cycles
 SCF Done:  E(RHF) =  -226.396907422     A.U. after   11 cycles
 SCF Done:  E(RHF) =  -226.396907464     A.U. after    8 cycles
 SCF Done:  E(RHF) =  -226.396907470     A.U. after    7 cycles
 Optimization completed.
    -- Stationary point found.

                          Input orientation:
 ---------------------------------------------------------------------
 Center     Atomic      Atomic             Coordinates (Angstroms)
 Number     Number       Type             X           Y           Z
 ---------------------------------------------------------------------
      1          6           0        0.736279    0.574078    0.056985
      2          6           0        1.419944   -0.536645   -0.042265
      3          1           0        1.172336    1.551541    0.086388
      4          1           0        2.489525   -0.502263   -0.063185
      5          1           0        0.939659   -1.489924   -0.080750
      6          8           0       -0.654454    0.709558    0.054541
      7          8           0       -1.270953   -0.570856    0.397953
      8          1           0       -1.881403   -0.276145    1.094475
 ---------------------------------------------------------------------

 Alpha  occ. eigenvalues --  -20.53764 -20.52709 -11.24178 -11.15980  -1.47835
 Alpha  occ. eigenvalues --   -1.23912  -1.02888  -0.79343  -0.71307  -0.66536
 Alpha  occ. eigenvalues --   -0.63680  -0.60734  -0.54139  -0.50015  -0.48420
 Alpha  occ. eigenvalues --   -0.35947
 Alpha virt. eigenvalues --    0.19202   0.23516   0.28811   0.30262   0.33907
 Alpha virt. eigenvalues --    0.37328   0.49995   0.58840   0.89109   0.97098
 Alpha virt. eigenvalues --    1.01397   1.07386   1.10680   1.13075   1.22371

 Mulliken charges:
               1
     1  C    0.146595
     2  C   -0.500683
     3  H    0.255195
     4  H    0.219514
     5  H    0.255045
     6  O   -0.415078
     7  O   -0.381422
     8  H    0.420836
 Sum of Mulliken charges =   0.00000

 Dipole moment (field-independent basis, Debye):
    X=              0.3195    Y=              0.3716    Z=              1.6050  Tot=              1.6781
 Quadrupole moment (field-independent basis, Debye-Ang):
   XX=            -18.9470   YY=            -22.9199   ZZ=            -23.3569
   XY=              1.1553   XZ=             -3.6140   YZ=              0.0464

 Normal termination of Gaussian 09 at Fri Apr 12 17:38:48 2019.
