 Gaussian 09, Revision D.01,
 Gaussian 09:  AS64L-G09RevD.01 24-Apr-2013

 --------------------------------------------------------------------
 #p hf 3-21g scf=tight NoSymmetry guess=read opt=(tight,modredundant)
 --------------------------------------------------------------------

 -----------------------------------
 Geometry optimization at the 2D-PES
 -----------------------------------
 Symbolic Z-matrix:
 Charge =  0 Multiplicity = 1

 SCF Done:  E(RHF) =  -226.396573471     A.U. after   13 cycles
 SCF Done:  E(RHF) =  -226.396574966     A.U. after   11 cycles
 SCF Done:  E(RHF) =  -226.396576204     A.U. after   10 cycles
 SCF Done:  E(RHF) =  -226.396576234     A.U. after    8 cycles
 SCF Done:  E(RHF) =  -226.396576235     A.U. after    6 cycles
 Optimization completed.
    -- Stationary point found.

                          Input orientation:
 ---------------------------------------------------------------------
 Center     Atomic      Atomic             Coordinates (Angstroms)
 Number     Number       Type             X           Y           Z
 ---------------------------------------------------------------------
      1          6           0        0.732289    0.580355    0.057701
      2          6           0        1.408910   -0.535410   -0.037677
      3          1           0        1.175790    1.553865    0.092121
      4          1           0        2.478841   -0.510952   -0.052397
      5          1           0        0.921957   -1.486069   -0.062289
      6          8           0       -0.658291    0.710775    0.042737
      7          8           0       -1.251206   -0.504622    0.610286
      8          1           0       -2.146980   -0.424071    0.241861
 ---------------------------------------------------------------------

 Alpha  occ. eigenvalues --  -20.53413 -20.52533 -11.24021 -11.16060  -1.47396
 Alpha  occ. eigenvalues --   -1.23810  -1.02780  -0.78938  -0.71313  -0.66469
 Alpha  occ. eigenvalues --   -0.64566  -0.59134  -0.53609  -0.51764  -0.47389
 Alpha  occ. eigenvalues --   -0.35773
 Alpha virt. eigenvalues --    0.18347   0.24581   0.28915   0.30448   0.33652
 Alpha virt. eigenvalues --    0.37399   0.50213   0.58521   0.89283   0.97455
 Alpha virt. eigenvalues --    1.00947   1.07453   1.10641   1.12823   1.23163

 Mulliken charges:
               1
     1  C    0.152171
     2  C   -0.493556
     3  H    0.254708
     4  H    0.220241
     5  H    0.249926
     6  O   -0.421742
     7  O   -0.382962
     8  H    0.421214
 Sum of Mulliken charges =   0.00000

 Dipole moment (field-independent basis, Debye):
    X=             -0.2437    Y=             -0.0990    Z=             -0.6233  Tot=              0.6766
 Quadrupole moment (field-independent basis, Debye-Ang):
   XX=            -16.2901   YY=            -22.5263   ZZ=            -26.4395
   XY=              2.2945   XZ=              0.6152   YZ=              0.6691

 Normal termination of Gaussian 09 at Fri Apr 12 17:28:16 2019.
