 Gaussian 09, Revision D.01,
 Gaussian 09:  AS64L-G09RevD.01 24-Apr-2013

 --------------------------------------------------------------------
 #p hf 3-21g scf=tight NoSymmetry guess=read opt=(tight,modredundant)
 --------------------------------------------------------------------

 -----------------------------------
 Geometry optimization at the 2D-PES
 -----------------------------------
 Symbolic Z-matrix:
 Charge =  0 Multiplicity = 1

 SCF Done:  E(RHF) =  -226.389566483     A.U. after   12 cycles
 SCF Done:  E(RHF) =  -226.389575585     A.U. after   12 cycles
 SCF Done:  E(RHF) =  -226.389582154     A.U. after   10 cycles
 SCF Done:  E(RHF) =  -226.389582186     A.U. after    8 cycles
 SCF Done:  E(RHF) =  -226.389582195     A.U. after    7 cycles
 Optimization completed.
    -- Stationary point found.

                          Input orientation:
 ---------------------------------------------------------------------
 Center     Atomic      Atomic             Coordinates (Angstroms)
 Number     Number       Type             X           Y           Z
 ---------------------------------------------------------------------
      1          6           0        0.738305    0.621417    0.042938
      2          6           0        1.380529   -0.516167   -0.004649
      3          1           0        1.214888    1.578774    0.107983
      4          1           0        2.451184   -0.544287    0.003592
      5          1           0        0.848060   -1.443722   -0.058314
      6          8           0       -0.672952    0.675235   -0.014010
      7          8           0       -1.183622    0.600246    1.363729
      8          1           0       -1.218906    1.541096    1.614008
 ---------------------------------------------------------------------

 Alpha  occ. eigenvalues --  -20.52565 -20.51864 -11.23899 -11.18119  -1.46475
 Alpha  occ. eigenvalues --   -1.22940  -1.03556  -0.80056  -0.69663  -0.68153
 Alpha  occ. eigenvalues --   -0.63168  -0.58455  -0.56295  -0.47520  -0.46631
 Alpha  occ. eigenvalues --   -0.38837
 Alpha virt. eigenvalues --    0.15073   0.26348   0.28526   0.30649   0.32150
 Alpha virt. eigenvalues --    0.36133   0.49355   0.56365   0.88314   0.97025
 Alpha virt. eigenvalues --    0.98394   1.06285   1.09791   1.11633   1.24984

 Mulliken charges:
               1
     1  C    0.110810
     2  C   -0.443540
     3  H    0.226581
     4  H    0.227521
     5  H    0.255143
     6  O   -0.397638
     7  O   -0.380470
     8  H    0.401594
 Sum of Mulliken charges =   0.00000

 Dipole moment (field-independent basis, Debye):
    X=              1.9978    Y=              1.5458    Z=              0.7810  Tot=              2.6440
 Quadrupole moment (field-independent basis, Debye-Ang):
   XX=            -22.7559   YY=            -17.8176   ZZ=            -24.0556
   XY=             -1.5646   XZ=             -0.8457   YZ=              3.9884

 Normal termination of Gaussian 09 at Fri Apr 12 16:37:38 2019.
