 Gaussian 09, Revision D.01,
 Gaussian 09:  AS64L-G09RevD.01 24-Apr-2013

 --------------------------------------------------------------------
 #p hf 3-21g scf=tight NoSymmetry guess=read opt=(tight,modredundant)
 --------------------------------------------------------------------

 -----------------------------------
 Geometry optimization at the 2D-PES
 -----------------------------------
 Symbolic Z-matrix:
 Charge =  0 Multiplicity = 1

 SCF Done:  E(RHF) =  -226.392795385     A.U. after   12 cycles
 SCF Done:  E(RHF) =  -226.392797954     A.U. after   11 cycles
 SCF Done:  E(RHF) =  -226.392798764     A.U. after   10 cycles
 SCF Done:  E(RHF) =  -226.392798814     A.U. after    8 cycles
 SCF Done:  E(RHF) =  -226.392798815     A.U. after    6 cycles
 Optimization completed.
    -- Stationary point found.

                          Input orientation:
 ---------------------------------------------------------------------
 Center     Atomic      Atomic             Coordinates (Angstroms)
 Number     Number       Type             X           Y           Z
 ---------------------------------------------------------------------
      1          6           0        0.731026    0.606551    0.053356
      2          6           0        1.387710   -0.522137   -0.019860
      3          1           0        1.194822    1.569576    0.102062
      4          1           0        2.458363   -0.529082   -0.015394
      5          1           0        0.876678   -1.462031   -0.053539
      6          8           0       -0.671080    0.695072    0.009479
      7          8           0       -1.201796   -0.080854    1.146633
      8          1           0       -2.143502   -0.075519    0.903521
 ---------------------------------------------------------------------

 Alpha  occ. eigenvalues --  -20.52342 -20.51798 -11.23616 -11.17096  -1.46180
 Alpha  occ. eigenvalues --   -1.23069  -1.02964  -0.78823  -0.70222  -0.67011
 Alpha  occ. eigenvalues --   -0.64170  -0.58177  -0.54395  -0.51430  -0.45059
 Alpha  occ. eigenvalues --   -0.37051
 Alpha virt. eigenvalues --    0.16046   0.26764   0.29394   0.30395   0.32408
 Alpha virt. eigenvalues --    0.37155   0.50127   0.57249   0.89032   0.97556
 Alpha virt. eigenvalues --    0.99770   1.07075   1.10449   1.12469   1.23429

 Mulliken charges:
               1
     1  C    0.140423
     2  C   -0.459742
     3  H    0.243887
     4  H    0.224831
     5  H    0.245701
     6  O   -0.423694
     7  O   -0.387269
     8  H    0.415862
 Sum of Mulliken charges =   0.00000

 Dipole moment (field-independent basis, Debye):
    X=             -0.0402    Y=             -0.3402    Z=             -0.2138  Tot=              0.4038
 Quadrupole moment (field-independent basis, Debye-Ang):
   XX=            -15.8917   YY=            -22.3414   ZZ=            -26.7062
   XY=              1.5341   XZ=             -1.2533   YZ=              0.3546

 Normal termination of Gaussian 09 at Fri Apr 12 17:00:27 2019.
