 Gaussian 09, Revision D.01,
 Gaussian 09:  AS64L-G09RevD.01 24-Apr-2013

 --------------------------------------------------------------------
 #p hf 3-21g scf=tight NoSymmetry guess=read opt=(tight,modredundant)
 --------------------------------------------------------------------

 -----------------------------------
 Geometry optimization at the 2D-PES
 -----------------------------------
 Symbolic Z-matrix:
 Charge =  0 Multiplicity = 1

 SCF Done:  E(RHF) =  -226.382059004     A.U. after   13 cycles
 SCF Done:  E(RHF) =  -226.382071301     A.U. after   13 cycles
 SCF Done:  E(RHF) =  -226.382109663     A.U. after   12 cycles
 SCF Done:  E(RHF) =  -226.382109913     A.U. after    8 cycles
 SCF Done:  E(RHF) =  -226.382109989     A.U. after    8 cycles
 SCF Done:  E(RHF) =  -226.382109991     A.U. after    7 cycles
 Optimization completed.
    -- Stationary point found.

                          Input orientation:
 ---------------------------------------------------------------------
 Center     Atomic      Atomic             Coordinates (Angstroms)
 Number     Number       Type             X           Y           Z
 ---------------------------------------------------------------------
      1          6           0        0.750618    0.584825    0.035750
      2          6           0        1.437642   -0.530964   -0.037595
      3          1           0        1.197654    1.556222    0.065389
      4          1           0        2.507045   -0.502615   -0.040982
      5          1           0        0.973097   -1.493265   -0.128026
      6          8           0       -0.643188    0.689839    0.045341
      7          8           0       -1.298156   -0.351953    0.849419
      8          1           0       -0.562505   -0.888952    1.197246
 ---------------------------------------------------------------------

 Alpha  occ. eigenvalues --  -20.53914 -20.52853 -11.26294 -11.18907  -1.47746
 Alpha  occ. eigenvalues --   -1.24384  -1.05487  -0.81331  -0.72999  -0.68095
 Alpha  occ. eigenvalues --   -0.62762  -0.59254  -0.55298  -0.54044  -0.47406
 Alpha  occ. eigenvalues --   -0.38029
 Alpha virt. eigenvalues --    0.15384   0.23203   0.27470   0.28665   0.32303
 Alpha virt. eigenvalues --    0.36658   0.49852   0.56851   0.87479   0.95573
 Alpha virt. eigenvalues --    1.00617   1.04895   1.07939   1.11241   1.23060

 Mulliken charges:
               1
     1  C    0.128280
     2  C   -0.524596
     3  H    0.267095
     4  H    0.240756
     5  H    0.233528
     6  O   -0.388160
     7  O   -0.364689
     8  H    0.407788
 Sum of Mulliken charges =   0.00000

 Dipole moment (field-independent basis, Debye):
    X=              3.2974    Y=             -1.1296    Z=              0.7853  Tot=              3.5729
 Quadrupole moment (field-independent basis, Debye-Ang):
   XX=            -25.6557   YY=            -20.7813   ZZ=            -24.1893
   XY=              1.6663   XZ=              0.7828   YZ=             -1.4030

 Normal termination of Gaussian 09 at Fri Apr 12 17:22:12 2019.
