 Gaussian 09, Revision D.01,
 Gaussian 09:  AS64L-G09RevD.01 24-Apr-2013

 --------------------------------------------------------------------
 #p hf 3-21g scf=tight NoSymmetry guess=read opt=(tight,modredundant)
 --------------------------------------------------------------------

 -----------------------------------
 Geometry optimization at the 2D-PES
 -----------------------------------
 Symbolic Z-matrix:
 Charge =  0 Multiplicity = 1

 SCF Done:  E(RHF) =  -226.395821220     A.U. after   13 cycles
 SCF Done:  E(RHF) =  -226.395823356     A.U. after   11 cycles
 SCF Done:  E(RHF) =  -226.395825516     A.U. after   10 cycles
 SCF Done:  E(RHF) =  -226.395825551     A.U. after    8 cycles
 SCF Done:  E(RHF) =  -226.395825554     A.U. after    7 cycles
 Optimization completed.
    -- Stationary point found.

                          Input orientation:
 ---------------------------------------------------------------------
 Center     Atomic      Atomic             Coordinates (Angstroms)
 Number     Number       Type             X           Y           Z
 ---------------------------------------------------------------------
      1          6           0        0.721674    0.634654    0.040518
      2          6           0        1.367251   -0.503483   -0.011966
      3          1           0        1.176730    1.598997    0.095546
      4          1           0        2.437203   -0.515299   -0.001394
      5          1           0        0.851613   -1.440587   -0.063107
      6          8           0       -0.676735    0.671149    0.027429
      7          8           0       -1.056761    2.084943    0.097148
      8          1           0       -1.894577    2.050080   -0.393431
 ---------------------------------------------------------------------

 Alpha  occ. eigenvalues --  -20.53686 -20.52885 -11.24303 -11.16131  -1.47887
 Alpha  occ. eigenvalues --   -1.24164  -1.02563  -0.79834  -0.70828  -0.67094
 Alpha  occ. eigenvalues --   -0.64259  -0.59234  -0.55234  -0.50747  -0.48769
 Alpha  occ. eigenvalues --   -0.35514
 Alpha virt. eigenvalues --    0.19748   0.22363   0.27591   0.32219   0.34204
 Alpha virt. eigenvalues --    0.36040   0.50142   0.57881   0.90458   0.97299
 Alpha virt. eigenvalues --    1.00396   1.06861   1.11060   1.12643   1.22534

 Mulliken charges:
               1
     1  C    0.170143
     2  C   -0.513892
     3  H    0.265736
     4  H    0.225713
     5  H    0.235919
     6  O   -0.419821
     7  O   -0.386718
     8  H    0.422921
 Sum of Mulliken charges =   0.00000

 Dipole moment (field-independent basis, Debye):
    X=             -0.1057    Y=              0.4575    Z=             -1.0295  Tot=              1.1315
 Quadrupole moment (field-independent basis, Debye-Ang):
   XX=            -17.6725   YY=            -21.7797   ZZ=            -25.4418
   XY=             -2.4199   XZ=              2.1215   YZ=             -2.0364

 Normal termination of Gaussian 09 at Fri Apr 12 15:38:46 2019.
