 Gaussian 09, Revision D.01,
 Gaussian 09:  AS64L-G09RevD.01 24-Apr-2013

 --------------------------------------------------------------------
 #p hf 3-21g scf=tight NoSymmetry guess=read opt=(tight,modredundant)
 --------------------------------------------------------------------

 -----------------------------------
 Geometry optimization at the 2D-PES
 -----------------------------------
 Symbolic Z-matrix:
 Charge =  0 Multiplicity = 1

 SCF Done:  E(RHF) =  -226.393763879     A.U. after   13 cycles
 SCF Done:  E(RHF) =  -226.393764309     A.U. after    9 cycles
 SCF Done:  E(RHF) =  -226.393764483     A.U. after    8 cycles
 SCF Done:  E(RHF) =  -226.393764493     A.U. after    7 cycles
 Optimization completed.
    -- Stationary point found.

                          Input orientation:
 ---------------------------------------------------------------------
 Center     Atomic      Atomic             Coordinates (Angstroms)
 Number     Number       Type             X           Y           Z
 ---------------------------------------------------------------------
      1          6           0        0.731917    0.598436    0.056784
      2          6           0        1.393000   -0.527323   -0.024823
      3          1           0        1.191053    1.564421    0.094459
      4          1           0        2.463573   -0.526083   -0.026722
      5          1           0        0.887751   -1.469989   -0.052063
      6          8           0       -0.666331    0.704023    0.020554
      7          8           0       -1.218248   -0.254683    0.993351
      8          1           0       -2.164301   -0.073142    0.860200
 ---------------------------------------------------------------------

 Alpha  occ. eigenvalues --  -20.52630 -20.52004 -11.23712 -11.16698  -1.46504
 Alpha  occ. eigenvalues --   -1.23274  -1.02849  -0.78818  -0.70827  -0.65961
 Alpha  occ. eigenvalues --   -0.64328  -0.59203  -0.54159  -0.51272  -0.45719
 Alpha  occ. eigenvalues --   -0.36527
 Alpha virt. eigenvalues --    0.16745   0.26028   0.29254   0.30522   0.32888
 Alpha virt. eigenvalues --    0.37251   0.50275   0.57659   0.89137   0.97621
 Alpha virt. eigenvalues --    0.99885   1.07253   1.10631   1.12470   1.23790

 Mulliken charges:
               1
     1  C    0.143625
     2  C   -0.470463
     3  H    0.247134
     4  H    0.222898
     5  H    0.249205
     6  O   -0.423915
     7  O   -0.386551
     8  H    0.418068
 Sum of Mulliken charges =   0.00000

 Dipole moment (field-independent basis, Debye):
    X=             -0.1463    Y=              0.0440    Z=             -0.0107  Tot=              0.1531
 Quadrupole moment (field-independent basis, Debye-Ang):
   XX=            -15.8151   YY=            -22.4854   ZZ=            -26.2015
   XY=              1.1111   XZ=             -1.4866   YZ=              0.6722

 Normal termination of Gaussian 09 at Fri Apr 12 17:10:16 2019.
