 Gaussian 09, Revision D.01,
 Gaussian 09:  AS64L-G09RevD.01 24-Apr-2013

 --------------------------------------------------------------------
 #p hf 3-21g scf=tight NoSymmetry guess=read opt=(tight,modredundant)
 --------------------------------------------------------------------

 -----------------------------------
 Geometry optimization at the 2D-PES
 -----------------------------------
 Symbolic Z-matrix:
 Charge =  0 Multiplicity = 1

 SCF Done:  E(RHF) =  -226.391225266     A.U. after   13 cycles
 SCF Done:  E(RHF) =  -226.391240821     A.U. after   12 cycles
 SCF Done:  E(RHF) =  -226.391253851     A.U. after   12 cycles
 SCF Done:  E(RHF) =  -226.391254039     A.U. after    9 cycles
 SCF Done:  E(RHF) =  -226.391254065     A.U. after    8 cycles
 SCF Done:  E(RHF) =  -226.391254067     A.U. after    6 cycles
 Optimization completed.
    -- Stationary point found.

                          Input orientation:
 ---------------------------------------------------------------------
 Center     Atomic      Atomic             Coordinates (Angstroms)
 Number     Number       Type             X           Y           Z
 ---------------------------------------------------------------------
      1          6           0        0.744487    0.583114    0.049957
      2          6           0        1.422446   -0.534140   -0.033804
      3          1           0        1.183328    1.558748    0.076371
      4          1           0        2.492317   -0.514439   -0.042107
      5          1           0        0.931253   -1.482727   -0.089798
      6          8           0       -0.653582    0.699567    0.042642
      7          8           0       -1.271952   -0.490693    0.623689
      8          1           0       -0.904265   -0.499307    1.527873
 ---------------------------------------------------------------------

 Alpha  occ. eigenvalues --  -20.54037 -20.53063 -11.25098 -11.17599  -1.48164
 Alpha  occ. eigenvalues --   -1.23959  -1.04289  -0.80700  -0.70599  -0.69163
 Alpha  occ. eigenvalues --   -0.63688  -0.57657  -0.56635  -0.51494  -0.48007
 Alpha  occ. eigenvalues --   -0.37431
 Alpha virt. eigenvalues --    0.16893   0.24047   0.28220   0.28954   0.32241
 Alpha virt. eigenvalues --    0.36882   0.49547   0.57322   0.87892   0.96598
 Alpha virt. eigenvalues --    0.99427   1.05901   1.09254   1.10817   1.24494

 Mulliken charges:
               1
     1  C    0.110634
     2  C   -0.501475
     3  H    0.260693
     4  H    0.228909
     5  H    0.252355
     6  O   -0.387927
     7  O   -0.368027
     8  H    0.404837
 Sum of Mulliken charges =   0.00000

 Dipole moment (field-independent basis, Debye):
    X=              2.4843    Y=             -0.2098    Z=              1.9398  Tot=              3.1589
 Quadrupole moment (field-independent basis, Debye-Ang):
   XX=            -24.7776   YY=            -22.2861   ZZ=            -21.4322
   XY=              1.1468   XZ=             -1.3238   YZ=             -0.7672

 Normal termination of Gaussian 09 at Fri Apr 12 17:24:28 2019.
