 Gaussian 09, Revision D.01,
 Gaussian 09:  AS64L-G09RevD.01 24-Apr-2013

 --------------------------------------------------------------------
 #p hf 3-21g scf=tight NoSymmetry guess=read opt=(tight,modredundant)
 --------------------------------------------------------------------

 -----------------------------------
 Geometry optimization at the 2D-PES
 -----------------------------------
 Symbolic Z-matrix:
 Charge =  0 Multiplicity = 1

 SCF Done:  E(RHF) =  -226.378802208     A.U. after   13 cycles
 SCF Done:  E(RHF) =  -226.378808501     A.U. after   12 cycles
 SCF Done:  E(RHF) =  -226.378813096     A.U. after   11 cycles
 SCF Done:  E(RHF) =  -226.378813181     A.U. after    8 cycles
 SCF Done:  E(RHF) =  -226.378813198     A.U. after    7 cycles
 SCF Done:  E(RHF) =  -226.378813199     A.U. after    6 cycles
 Optimization completed.
    -- Stationary point found.

                          Input orientation:
 ---------------------------------------------------------------------
 Center     Atomic      Atomic             Coordinates (Angstroms)
 Number     Number       Type             X           Y           Z
 ---------------------------------------------------------------------
      1          6           0        0.767040    0.631227    0.017484
      2          6           0        1.386167   -0.521283   -0.008351
      3          1           0        1.275970    1.570732    0.117033
      4          1           0        2.453527   -0.566005    0.054818
      5          1           0        0.841301   -1.439679   -0.084367
      6          8           0       -0.631644    0.696100    0.037432
      7          8           0       -1.139334    2.003436   -0.400358
      8          1           0       -0.348941    2.533801   -0.608191
 ---------------------------------------------------------------------

 Alpha  occ. eigenvalues --  -20.54095 -20.53098 -11.25907 -11.17950  -1.47832
 Alpha  occ. eigenvalues --   -1.24648  -1.04280  -0.82174  -0.71951  -0.67157
 Alpha  occ. eigenvalues --   -0.63437  -0.59012  -0.55481  -0.52944  -0.48582
 Alpha  occ. eigenvalues --   -0.36836
 Alpha virt. eigenvalues --    0.16756   0.22780   0.24028   0.30845   0.34008
 Alpha virt. eigenvalues --    0.35547   0.51087   0.56208   0.88652   0.95820
 Alpha virt. eigenvalues --    0.99246   1.05601   1.09757   1.11185   1.23027

 Mulliken charges:
               1
     1  C    0.118101
     2  C   -0.486151
     3  H    0.227835
     4  H    0.231549
     5  H    0.252405
     6  O   -0.380086
     7  O   -0.363070
     8  H    0.399417
 Sum of Mulliken charges =   0.00000

 Dipole moment (field-independent basis, Debye):
    X=              3.4049    Y=              1.1030    Z=             -0.4603  Tot=              3.6086
 Quadrupole moment (field-independent basis, Debye-Ang):
   XX=            -25.3104   YY=            -16.8408   ZZ=            -25.3451
   XY=              3.9686   XZ=             -0.1781   YZ=             -1.4458

 Normal termination of Gaussian 09 at Fri Apr 12 15:33:19 2019.
