 Gaussian 09, Revision D.01,
 Gaussian 09:  AS64L-G09RevD.01 24-Apr-2013

 --------------------------------------------------------------------
 #p hf 3-21g scf=tight NoSymmetry guess=read opt=(tight,modredundant)
 --------------------------------------------------------------------

 -----------------------------------
 Geometry optimization at the 2D-PES
 -----------------------------------
 Symbolic Z-matrix:
 Charge =  0 Multiplicity = 1

 SCF Done:  E(RHF) =  -226.384604831     A.U. after   13 cycles
 SCF Done:  E(RHF) =  -226.384627242     A.U. after   13 cycles
 SCF Done:  E(RHF) =  -226.384642850     A.U. after   10 cycles
 SCF Done:  E(RHF) =  -226.384643047     A.U. after   10 cycles
 SCF Done:  E(RHF) =  -226.384643075     A.U. after    9 cycles
 SCF Done:  E(RHF) =  -226.384643077     A.U. after    8 cycles
 Optimization completed.
    -- Stationary point found.

                          Input orientation:
 ---------------------------------------------------------------------
 Center     Atomic      Atomic             Coordinates (Angstroms)
 Number     Number       Type             X           Y           Z
 ---------------------------------------------------------------------
      1          6           0        0.743914    0.635375    0.026215
      2          6           0        1.382979   -0.506840   -0.013474
      3          1           0        1.214462    1.595539    0.085814
      4          1           0        2.452295   -0.538551    0.033945
      5          1           0        0.848559   -1.433607   -0.066956
      6          8           0       -0.663217    0.664013    0.042518
      7          8           0       -1.137552    1.406735   -1.142097
      8          1           0       -0.447690    1.244628   -1.812809
 ---------------------------------------------------------------------

 Alpha  occ. eigenvalues --  -20.53275 -20.52164 -11.25072 -11.19234  -1.46929
 Alpha  occ. eigenvalues --   -1.23658  -1.04649  -0.81250  -0.72233  -0.66789
 Alpha  occ. eigenvalues --   -0.62144  -0.59435  -0.55900  -0.52482  -0.45386
 Alpha  occ. eigenvalues --   -0.39152
 Alpha virt. eigenvalues --    0.14373   0.25864   0.27453   0.30077   0.31232
 Alpha virt. eigenvalues --    0.35541   0.48676   0.55758   0.87883   0.96573
 Alpha virt. eigenvalues --    0.97784   1.05738   1.08970   1.10896   1.24316

 Mulliken charges:
               1
     1  C    0.075630
     2  C   -0.458235
     3  H    0.246659
     4  H    0.234399
     5  H    0.255234
     6  O   -0.376277
     7  O   -0.376439
     8  H    0.399028
 Sum of Mulliken charges =   0.00000

 Dipole moment (field-independent basis, Debye):
    X=              3.4376    Y=             -0.5488    Z=             -1.4242  Tot=              3.7612
 Quadrupole moment (field-independent basis, Debye-Ang):
   XX=            -25.0799   YY=            -22.9433   ZZ=            -21.4284
   XY=              3.1364   XZ=             -0.7344   YZ=             -1.2358

 Normal termination of Gaussian 09 at Fri Apr 12 15:16:50 2019.
