 Gaussian 09, Revision D.01,
 Gaussian 09:  AS64L-G09RevD.01 24-Apr-2013

 --------------------------------------------------------------------
 #p hf 3-21g scf=tight NoSymmetry guess=read opt=(tight,modredundant)
 --------------------------------------------------------------------

 -----------------------------------
 Geometry optimization at the 2D-PES
 -----------------------------------
 Symbolic Z-matrix:
 Charge =  0 Multiplicity = 1

 SCF Done:  E(RHF) =  -226.394135728     A.U. after   13 cycles
 SCF Done:  E(RHF) =  -226.394151103     A.U. after   13 cycles
 SCF Done:  E(RHF) =  -226.394171465     A.U. after   12 cycles
 SCF Done:  E(RHF) =  -226.394171742     A.U. after    9 cycles
 SCF Done:  E(RHF) =  -226.394171780     A.U. after    9 cycles
 SCF Done:  E(RHF) =  -226.394171782     A.U. after    8 cycles
 Optimization completed.
    -- Stationary point found.

                          Input orientation:
 ---------------------------------------------------------------------
 Center     Atomic      Atomic             Coordinates (Angstroms)
 Number     Number       Type             X           Y           Z
 ---------------------------------------------------------------------
      1          6           0        0.741504    0.573203    0.030382
      2          6           0        1.431764   -0.537044   -0.044142
      3          1           0        1.171605    1.551381    0.087497
      4          1           0        2.500966   -0.500600   -0.037748
      5          1           0        0.959978   -1.491344   -0.136882
      6          8           0       -0.650137    0.701458    0.041764
      7          8           0       -1.292106   -0.597415    0.194388
      8          1           0       -1.074280   -0.828794    1.117404
 ---------------------------------------------------------------------

 Alpha  occ. eigenvalues --  -20.54548 -20.53423 -11.25246 -11.17089  -1.48773
 Alpha  occ. eigenvalues --   -1.24350  -1.04150  -0.80564  -0.70906  -0.69391
 Alpha  occ. eigenvalues --   -0.64817  -0.57040  -0.55814  -0.52268  -0.48804
 Alpha  occ. eigenvalues --   -0.37028
 Alpha virt. eigenvalues --    0.18616   0.22499   0.28275   0.29102   0.32794
 Alpha virt. eigenvalues --    0.36875   0.49409   0.58103   0.88192   0.96456
 Alpha virt. eigenvalues --    1.00019   1.06194   1.09379   1.11096   1.24614

 Mulliken charges:
               1
     1  C    0.133146
     2  C   -0.519871
     3  H    0.264789
     4  H    0.227736
     5  H    0.243874
     6  O   -0.392390
     7  O   -0.365789
     8  H    0.408505
 Sum of Mulliken charges =   0.00000

 Dipole moment (field-independent basis, Debye):
    X=              2.0396    Y=             -0.5644    Z=              1.9055  Tot=              2.8477
 Quadrupole moment (field-independent basis, Debye-Ang):
   XX=            -24.3089   YY=            -21.6194   ZZ=            -23.0381
   XY=              1.9458   XZ=             -2.0401   YZ=             -1.5384

 Normal termination of Gaussian 09 at Fri Apr 12 17:46:05 2019.
