 Gaussian 09, Revision D.01,
 Gaussian 09:  AS64L-G09RevD.01 24-Apr-2013

 --------------------------------------------------------------------
 #p hf 3-21g scf=tight NoSymmetry guess=read opt=(tight,modredundant)
 --------------------------------------------------------------------

 -----------------------------------
 Geometry optimization at the 2D-PES
 -----------------------------------
 Symbolic Z-matrix:
 Charge =  0 Multiplicity = 1

 SCF Done:  E(RHF) =  -226.396163265     A.U. after   13 cycles
 SCF Done:  E(RHF) =  -226.396168680     A.U. after   11 cycles
 SCF Done:  E(RHF) =  -226.396172832     A.U. after   10 cycles
 SCF Done:  E(RHF) =  -226.396172893     A.U. after    8 cycles
 SCF Done:  E(RHF) =  -226.396172894     A.U. after    7 cycles
 Optimization completed.
    -- Stationary point found.

                          Input orientation:
 ---------------------------------------------------------------------
 Center     Atomic      Atomic             Coordinates (Angstroms)
 Number     Number       Type             X           Y           Z
 ---------------------------------------------------------------------
      1          6           0        0.729843    0.635859    0.054740
      2          6           0        1.368218   -0.505515    0.000815
      3          1           0        1.189984    1.597762    0.117816
      4          1           0        2.438093   -0.527551   -0.016632
      5          1           0        0.840837   -1.436534   -0.037508
      6          8           0       -0.668188    0.676779   -0.015552
      7          8           0       -1.085570    1.850704    0.759691
      8          1           0       -1.798462    2.178866    0.186602
 ---------------------------------------------------------------------

 Alpha  occ. eigenvalues --  -20.53475 -20.52583 -11.24155 -11.16599  -1.47584
 Alpha  occ. eigenvalues --   -1.23928  -1.02721  -0.79664  -0.70142  -0.68167
 Alpha  occ. eigenvalues --   -0.64974  -0.56623  -0.55310  -0.52054  -0.47671
 Alpha  occ. eigenvalues --   -0.36149
 Alpha virt. eigenvalues --    0.18070   0.24324   0.28054   0.32033   0.33300
 Alpha virt. eigenvalues --    0.36032   0.49710   0.57584   0.90280   0.97217
 Alpha virt. eigenvalues --    1.00396   1.06696   1.10955   1.12759   1.22435

 Mulliken charges:
               1
     1  C    0.164713
     2  C   -0.499198
     3  H    0.252753
     4  H    0.225940
     5  H    0.240927
     6  O   -0.416341
     7  O   -0.387141
     8  H    0.418347
 Sum of Mulliken charges =   0.00000

 Dipole moment (field-independent basis, Debye):
    X=              0.2621    Y=              0.9925    Z=             -1.0214  Tot=              1.4481
 Quadrupole moment (field-independent basis, Debye-Ang):
   XX=            -18.5717   YY=            -18.7856   ZZ=            -26.9017
   XY=             -3.0367   XZ=              1.0676   YZ=             -1.8613

 Normal termination of Gaussian 09 at Fri Apr 12 15:58:38 2019.
