 Gaussian 09, Revision D.01,
 Gaussian 09:  AS64L-G09RevD.01 24-Apr-2013

 --------------------------------------------------------------------
 #p hf 3-21g scf=tight NoSymmetry guess=read opt=(tight,modredundant)
 --------------------------------------------------------------------

 -----------------------------------
 Geometry optimization at the 2D-PES
 -----------------------------------
 Symbolic Z-matrix:
 Charge =  0 Multiplicity = 1

 SCF Done:  E(RHF) =  -226.385792217     A.U. after   14 cycles
 SCF Done:  E(RHF) =  -226.385967676     A.U. after   13 cycles
 SCF Done:  E(RHF) =  -226.386019142     A.U. after   12 cycles
 SCF Done:  E(RHF) =  -226.386020517     A.U. after   10 cycles
 SCF Done:  E(RHF) =  -226.386020770     A.U. after    9 cycles
 SCF Done:  E(RHF) =  -226.386020779     A.U. after    7 cycles
 Optimization completed.
    -- Stationary point found.

                          Input orientation:
 ---------------------------------------------------------------------
 Center     Atomic      Atomic             Coordinates (Angstroms)
 Number     Number       Type             X           Y           Z
 ---------------------------------------------------------------------
      1          6           0        0.739888    0.596368    0.051840
      2          6           0        1.413430   -0.523981   -0.023264
      3          1           0        1.201949    1.559782    0.101260
      4          1           0        2.483650   -0.510978   -0.022796
      5          1           0        0.940369   -1.483951   -0.090725
      6          8           0       -0.666784    0.687462    0.023749
      7          8           0       -1.256864   -0.058747    1.140154
      8          1           0       -1.083458   -0.983993    0.894859
 ---------------------------------------------------------------------

 Alpha  occ. eigenvalues --  -20.53210 -20.52613 -11.25090 -11.18711  -1.47274
 Alpha  occ. eigenvalues --   -1.23608  -1.04718  -0.80315  -0.72343  -0.66595
 Alpha  occ. eigenvalues --   -0.65410  -0.58580  -0.55600  -0.50127  -0.47543
 Alpha  occ. eigenvalues --   -0.38533
 Alpha virt. eigenvalues --    0.15028   0.22837   0.28227   0.29208   0.33981
 Alpha virt. eigenvalues --    0.36595   0.50152   0.56582   0.87884   0.95971
 Alpha virt. eigenvalues --    0.98431   1.05698   1.08856   1.10986   1.25502

 Mulliken charges:
               1
     1  C    0.135668
     2  C   -0.484816
     3  H    0.255615
     4  H    0.238499
     5  H    0.216654
     6  O   -0.398225
     7  O   -0.367219
     8  H    0.403824
 Sum of Mulliken charges =   0.00000

 Dipole moment (field-independent basis, Debye):
    X=              2.2899    Y=             -2.0128    Z=             -0.2532  Tot=              3.0593
 Quadrupole moment (field-independent basis, Debye-Ang):
   XX=            -23.6506   YY=            -20.0987   ZZ=            -26.7045
   XY=              3.5672   XZ=              0.8777   YZ=             -1.3354

 Normal termination of Gaussian 09 at Fri Apr 12 16:56:45 2019.
