 Gaussian 09, Revision D.01,
 Gaussian 09:  AS64L-G09RevD.01 24-Apr-2013

 --------------------------------------------------------------------
 #p hf 3-21g scf=tight NoSymmetry guess=read opt=(tight,modredundant)
 --------------------------------------------------------------------

 -----------------------------------
 Geometry optimization at the 2D-PES
 -----------------------------------
 Symbolic Z-matrix:
 Charge =  0 Multiplicity = 1

 SCF Done:  E(RHF) =  -226.398371262     A.U. after   13 cycles
 SCF Done:  E(RHF) =  -226.398371848     A.U. after   11 cycles
 SCF Done:  E(RHF) =  -226.398372162     A.U. after    9 cycles
 SCF Done:  E(RHF) =  -226.398372172     A.U. after    8 cycles
 SCF Done:  E(RHF) =  -226.398372173     A.U. after    6 cycles
 Optimization completed.
    -- Stationary point found.

                          Input orientation:
 ---------------------------------------------------------------------
 Center     Atomic      Atomic             Coordinates (Angstroms)
 Number     Number       Type             X           Y           Z
 ---------------------------------------------------------------------
      1          6           0        0.731892    0.572996    0.030606
      2          6           0        1.420094   -0.536367   -0.055305
      3          1           0        1.164779    1.549705    0.099923
      4          1           0        2.489608   -0.495943   -0.058846
      5          1           0        0.946245   -1.490579   -0.122724
      6          8           0       -0.652302    0.712530    0.049316
      7          8           0       -1.267907   -0.611706   -0.044493
      8          1           0       -2.201288   -0.343755   -0.019067
 ---------------------------------------------------------------------

 Alpha  occ. eigenvalues --  -20.53874 -20.52675 -11.24161 -11.15549  -1.47860
 Alpha  occ. eigenvalues --   -1.24117  -1.02622  -0.79048  -0.71990  -0.64871
 Alpha  occ. eigenvalues --   -0.63945  -0.61909  -0.53561  -0.50673  -0.48374
 Alpha  occ. eigenvalues --   -0.35338
 Alpha virt. eigenvalues --    0.20496   0.22787   0.28541   0.30617   0.34416
 Alpha virt. eigenvalues --    0.37463   0.50264   0.59340   0.89475   0.97598
 Alpha virt. eigenvalues --    1.00792   1.07734   1.10776   1.12783   1.24280

 Mulliken charges:
               1
     1  C    0.159899
     2  C   -0.508752
     3  H    0.257623
     4  H    0.217698
     5  H    0.255716
     6  O   -0.423277
     7  O   -0.384288
     8  H    0.425382
 Sum of Mulliken charges =   0.00000

 Dipole moment (field-independent basis, Debye):
    X=             -0.4576    Y=              0.3568    Z=              0.0291  Tot=              0.5810
 Quadrupole moment (field-independent basis, Debye-Ang):
   XX=            -15.9087   YY=            -22.9110   ZZ=            -25.8371
   XY=              1.6749   XZ=              0.0661   YZ=              0.2039

 Normal termination of Gaussian 09 at Fri Apr 12 17:59:27 2019.
