 Gaussian 09, Revision D.01,
 Gaussian 09:  AS64L-G09RevD.01 24-Apr-2013

 --------------------------------------------------------------------
 #p hf 3-21g scf=tight NoSymmetry guess=read opt=(tight,modredundant)
 --------------------------------------------------------------------

 -----------------------------------
 Geometry optimization at the 2D-PES
 -----------------------------------
 Symbolic Z-matrix:
 Charge =  0 Multiplicity = 1

 SCF Done:  E(RHF) =  -226.392646888     A.U. after   13 cycles
 SCF Done:  E(RHF) =  -226.392654760     A.U. after   11 cycles
 SCF Done:  E(RHF) =  -226.392658722     A.U. after   10 cycles
 SCF Done:  E(RHF) =  -226.392658796     A.U. after    8 cycles
 SCF Done:  E(RHF) =  -226.392658805     A.U. after    6 cycles
 Optimization completed.
    -- Stationary point found.

                          Input orientation:
 ---------------------------------------------------------------------
 Center     Atomic      Atomic             Coordinates (Angstroms)
 Number     Number       Type             X           Y           Z
 ---------------------------------------------------------------------
      1          6           0        0.730072    0.627017    0.042160
      2          6           0        1.373352   -0.510366    0.000002
      3          1           0        1.199990    1.585122    0.124114
      4          1           0        2.443911   -0.536780    0.009141
      5          1           0        0.842210   -1.438377   -0.056843
      6          8           0       -0.677776    0.667090   -0.023189
      7          8           0       -1.154370    0.834498    1.361265
      8          1           0       -1.636032    1.675970    1.280686
 ---------------------------------------------------------------------

 Alpha  occ. eigenvalues --  -20.52492 -20.51727 -11.23715 -11.17707  -1.46366
 Alpha  occ. eigenvalues --   -1.23001  -1.03175  -0.79477  -0.69783  -0.67479
 Alpha  occ. eigenvalues --   -0.64600  -0.57529  -0.55457  -0.49460  -0.45403
 Alpha  occ. eigenvalues --   -0.38360
 Alpha virt. eigenvalues --    0.15690   0.26867   0.28735   0.31086   0.32313
 Alpha virt. eigenvalues --    0.36126   0.49206   0.56730   0.88810   0.97454
 Alpha virt. eigenvalues --    0.98660   1.07070   1.10353   1.12737   1.23120

 Mulliken charges:
               1
     1  C    0.133459
     2  C   -0.451702
     3  H    0.227965
     4  H    0.226488
     5  H    0.251302
     6  O   -0.408529
     7  O   -0.387436
     8  H    0.408453
 Sum of Mulliken charges =   0.00000

 Dipole moment (field-independent basis, Debye):
    X=              1.0358    Y=              1.4995    Z=              0.1197  Tot=              1.8264
 Quadrupole moment (field-independent basis, Debye-Ang):
   XX=            -20.0587   YY=            -17.4830   ZZ=            -26.1227
   XY=             -2.9432   XZ=             -1.2145   YZ=              2.5996

 Normal termination of Gaussian 09 at Fri Apr 12 16:31:06 2019.
