 Gaussian 09, Revision D.01,
 Gaussian 09:  AS64L-G09RevD.01 24-Apr-2013

 --------------------------------------------------------------------
 #p hf 3-21g scf=tight NoSymmetry guess=read opt=(tight,modredundant)
 --------------------------------------------------------------------

 -----------------------------------
 Geometry optimization at the 2D-PES
 -----------------------------------
 Symbolic Z-matrix:
 Charge =  0 Multiplicity = 1

 SCF Done:  E(RHF) =  -226.393528792     A.U. after   13 cycles
 SCF Done:  E(RHF) =  -226.393534540     A.U. after   11 cycles
 SCF Done:  E(RHF) =  -226.393538681     A.U. after   10 cycles
 SCF Done:  E(RHF) =  -226.393538732     A.U. after    7 cycles
 SCF Done:  E(RHF) =  -226.393538739     A.U. after    7 cycles
 Optimization completed.
    -- Stationary point found.

                          Input orientation:
 ---------------------------------------------------------------------
 Center     Atomic      Atomic             Coordinates (Angstroms)
 Number     Number       Type             X           Y           Z
 ---------------------------------------------------------------------
      1          6           0        0.740730    0.588050    0.064921
      2          6           0        1.410778   -0.530892   -0.031596
      3          1           0        1.189710    1.560019    0.081700
      4          1           0        2.481039   -0.516459   -0.052745
      5          1           0        0.914338   -1.477937   -0.055301
      6          8           0       -0.659633    0.706303    0.044207
      7          8           0       -1.253252   -0.389613    0.812699
      8          1           0       -1.591808    0.098998    1.582722
 ---------------------------------------------------------------------

 Alpha  occ. eigenvalues --  -20.53244 -20.52446 -11.24042 -11.16735  -1.47329
 Alpha  occ. eigenvalues --   -1.23446  -1.03172  -0.79585  -0.70613  -0.67070
 Alpha  occ. eigenvalues --   -0.62712  -0.60922  -0.54966  -0.48780  -0.47944
 Alpha  occ. eigenvalues --   -0.36829
 Alpha virt. eigenvalues --    0.17225   0.24857   0.29021   0.30030   0.33075
 Alpha virt. eigenvalues --    0.37154   0.49914   0.57852   0.88690   0.96875
 Alpha virt. eigenvalues --    1.00543   1.06867   1.10344   1.12631   1.22672

 Mulliken charges:
               1
     1  C    0.127363
     2  C   -0.479844
     3  H    0.249211
     4  H    0.222589
     5  H    0.255204
     6  O   -0.408298
     7  O   -0.380529
     8  H    0.414305
 Sum of Mulliken charges =   0.00000

 Dipole moment (field-independent basis, Debye):
    X=              1.0788    Y=              0.6959    Z=              1.8329  Tot=              2.2378
 Quadrupole moment (field-independent basis, Debye-Ang):
   XX=            -21.0081   YY=            -22.6593   ZZ=            -21.5059
   XY=             -0.0222   XZ=             -3.4769   YZ=              1.3155

 Normal termination of Gaussian 09 at Fri Apr 12 17:19:16 2019.
