 Gaussian 09, Revision D.01,
 Gaussian 09:  AS64L-G09RevD.01 24-Apr-2013

 --------------------------------------------------------------------
 #p hf 3-21g scf=tight NoSymmetry guess=read opt=(tight,modredundant)
 --------------------------------------------------------------------

 -----------------------------------
 Geometry optimization at the 2D-PES
 -----------------------------------
 Symbolic Z-matrix:
 Charge =  0 Multiplicity = 1

 SCF Done:  E(RHF) =  -226.388672682     A.U. after   12 cycles
 SCF Done:  E(RHF) =  -226.388694532     A.U. after   12 cycles
 SCF Done:  E(RHF) =  -226.388715235     A.U. after   12 cycles
 SCF Done:  E(RHF) =  -226.388715391     A.U. after    9 cycles
 SCF Done:  E(RHF) =  -226.388715417     A.U. after    8 cycles
 SCF Done:  E(RHF) =  -226.388715418     A.U. after    6 cycles
 Optimization completed.
    -- Stationary point found.

                          Input orientation:
 ---------------------------------------------------------------------
 Center     Atomic      Atomic             Coordinates (Angstroms)
 Number     Number       Type             X           Y           Z
 ---------------------------------------------------------------------
      1          6           0        0.746544    0.635562    0.042107
      2          6           0        1.375854   -0.510678   -0.005127
      3          1           0        1.229094    1.587579    0.113755
      4          1           0        2.445601   -0.540989   -0.004214
      5          1           0        0.841866   -1.437780   -0.047810
      6          8           0       -0.657217    0.687898    0.005788
      7          8           0       -1.096624    2.047026    0.310274
      8          1           0       -0.820110    2.542181   -0.482909
 ---------------------------------------------------------------------

 Alpha  occ. eigenvalues --  -20.54098 -20.53394 -11.25091 -11.17125  -1.48406
 Alpha  occ. eigenvalues --   -1.24284  -1.03550  -0.80907  -0.71728  -0.67285
 Alpha  occ. eigenvalues --   -0.65347  -0.56984  -0.54746  -0.53293  -0.48819
 Alpha  occ. eigenvalues --   -0.36580
 Alpha virt. eigenvalues --    0.18446   0.21951   0.25886   0.31534   0.33717
 Alpha virt. eigenvalues --    0.35454   0.49803   0.56945   0.89336   0.96524
 Alpha virt. eigenvalues --    0.99199   1.06193   1.10127   1.10984   1.24689

 Mulliken charges:
               1
     1  C    0.138164
     2  C   -0.499916
     3  H    0.242455
     4  H    0.228708
     5  H    0.245898
     6  O   -0.392035
     7  O   -0.366631
     8  H    0.403358
 Sum of Mulliken charges =   0.00000

 Dipole moment (field-independent basis, Debye):
    X=              2.3141    Y=              1.2713    Z=             -1.5267  Tot=              3.0499
 Quadrupole moment (field-independent basis, Debye-Ang):
   XX=            -24.2409   YY=            -16.8781   ZZ=            -25.3886
   XY=              1.4814   XZ=              1.5956   YZ=             -3.7751

 Normal termination of Gaussian 09 at Fri Apr 12 15:45:20 2019.
