 Gaussian 09, Revision D.01,
 Gaussian 09:  AS64L-G09RevD.01 24-Apr-2013

 --------------------------------------------------------------------
 #p hf 3-21g scf=tight NoSymmetry guess=read opt=(tight,modredundant)
 --------------------------------------------------------------------

 -----------------------------------
 Geometry optimization at the 2D-PES
 -----------------------------------
 Symbolic Z-matrix:
 Charge =  0 Multiplicity = 1

 SCF Done:  E(RHF) =  -226.391937179     A.U. after   13 cycles
 SCF Done:  E(RHF) =  -226.391940583     A.U. after   11 cycles
 SCF Done:  E(RHF) =  -226.391942285     A.U. after   10 cycles
 SCF Done:  E(RHF) =  -226.391942323     A.U. after    7 cycles
 SCF Done:  E(RHF) =  -226.391942326     A.U. after    6 cycles
 Optimization completed.
    -- Stationary point found.

                          Input orientation:
 ---------------------------------------------------------------------
 Center     Atomic      Atomic             Coordinates (Angstroms)
 Number     Number       Type             X           Y           Z
 ---------------------------------------------------------------------
      1          6           0        0.727448    0.620995    0.043199
      2          6           0        1.374545   -0.514710   -0.003234
      3          1           0        1.197531    1.578297    0.120995
      4          1           0        2.445147   -0.535903    0.010205
      5          1           0        0.853789   -1.448783   -0.064833
      6          8           0       -0.679967    0.672834   -0.016631
      7          8           0       -1.166632    0.594620    1.375939
      8          1           0       -1.932340    0.011111    1.239931
 ---------------------------------------------------------------------

 Alpha  occ. eigenvalues --  -20.52232 -20.51552 -11.23735 -11.17880  -1.46030
 Alpha  occ. eigenvalues --   -1.22925  -1.03311  -0.79197  -0.69669  -0.67907
 Alpha  occ. eigenvalues --   -0.63824  -0.58313  -0.55631  -0.49759  -0.44434
 Alpha  occ. eigenvalues --   -0.38568
 Alpha virt. eigenvalues --    0.15308   0.27220   0.29207   0.30784   0.31524
 Alpha virt. eigenvalues --    0.36529   0.49499   0.56675   0.88812   0.97426
 Alpha virt. eigenvalues --    0.98525   1.06836   1.09958   1.12749   1.23369

 Mulliken charges:
               1
     1  C    0.142062
     2  C   -0.453867
     3  H    0.239930
     4  H    0.228981
     5  H    0.237555
     6  O   -0.418223
     7  O   -0.389439
     8  H    0.413001
 Sum of Mulliken charges =   0.00000

 Dipole moment (field-independent basis, Debye):
    X=              0.4497    Y=             -1.4757    Z=              0.0299  Tot=              1.5429
 Quadrupole moment (field-independent basis, Debye-Ang):
   XX=            -17.6455   YY=            -22.9132   ZZ=            -26.3758
   XY=              2.8129   XZ=             -1.8036   YZ=             -1.3475

 Normal termination of Gaussian 09 at Fri Apr 12 16:41:06 2019.
