 Gaussian 09, Revision D.01,
 Gaussian 09:  AS64L-G09RevD.01 24-Apr-2013

 --------------------------------------------------------------------
 #p hf 3-21g scf=tight NoSymmetry guess=read opt=(tight,modredundant)
 --------------------------------------------------------------------

 -----------------------------------
 Geometry optimization at the 2D-PES
 -----------------------------------
 Symbolic Z-matrix:
 Charge =  0 Multiplicity = 1

 SCF Done:  E(RHF) =  -226.380546547     A.U. after   13 cycles
 SCF Done:  E(RHF) =  -226.380567907     A.U. after   13 cycles
 SCF Done:  E(RHF) =  -226.380605168     A.U. after   12 cycles
 SCF Done:  E(RHF) =  -226.380605458     A.U. after   10 cycles
 SCF Done:  E(RHF) =  -226.380605525     A.U. after    9 cycles
 SCF Done:  E(RHF) =  -226.380605528     A.U. after    7 cycles
 Optimization completed.
    -- Stationary point found.

                          Input orientation:
 ---------------------------------------------------------------------
 Center     Atomic      Atomic             Coordinates (Angstroms)
 Number     Number       Type             X           Y           Z
 ---------------------------------------------------------------------
      1          6           0        0.762018    0.630753    0.034890
      2          6           0        1.382553   -0.520584   -0.006585
      3          1           0        1.269209    1.571943    0.110959
      4          1           0        2.451770   -0.560121    0.009411
      5          1           0        0.840077   -1.442188   -0.057050
      6          8           0       -0.638363    0.694981    0.021050
      7          8           0       -1.124051    2.075894    0.073854
      8          1           0       -0.431456    2.600893   -0.367234
 ---------------------------------------------------------------------

 Alpha  occ. eigenvalues --  -20.54203 -20.53401 -11.25839 -11.17560  -1.48198
 Alpha  occ. eigenvalues --   -1.24656  -1.04092  -0.81966  -0.72031  -0.66845
 Alpha  occ. eigenvalues --   -0.64610  -0.58363  -0.55121  -0.53164  -0.49129
 Alpha  occ. eigenvalues --   -0.36541
 Alpha virt. eigenvalues --    0.17816   0.21797   0.24106   0.31094   0.33938
 Alpha virt. eigenvalues --    0.35719   0.51091   0.56433   0.88817   0.96004
 Alpha virt. eigenvalues --    0.99126   1.05789   1.09933   1.11115   1.23308

 Mulliken charges:
               1
     1  C    0.127527
     2  C   -0.494712
     3  H    0.231423
     4  H    0.230574
     5  H    0.249780
     6  O   -0.383858
     7  O   -0.360509
     8  H    0.399776
 Sum of Mulliken charges =   0.00000

 Dipole moment (field-independent basis, Debye):
    X=              3.1602    Y=              1.2250    Z=             -0.8489  Tot=              3.4940
 Quadrupole moment (field-independent basis, Debye-Ang):
   XX=            -25.1878   YY=            -16.6101   ZZ=            -25.5172
   XY=              3.6358   XZ=              0.6064   YZ=             -2.1651

 Normal termination of Gaussian 09 at Fri Apr 12 15:42:03 2019.
