 Gaussian 09, Revision D.01,
 Gaussian 09:  AS64L-G09RevD.01 24-Apr-2013

 --------------------------------------------------------------------
 #p hf 3-21g scf=tight NoSymmetry guess=read opt=(tight,modredundant)
 --------------------------------------------------------------------

 -----------------------------------
 Geometry optimization at the 2D-PES
 -----------------------------------
 Symbolic Z-matrix:
 Charge =  0 Multiplicity = 1

 SCF Done:  E(RHF) =  -226.393381187     A.U. after   12 cycles
 SCF Done:  E(RHF) =  -226.393390274     A.U. after   11 cycles
 SCF Done:  E(RHF) =  -226.393397874     A.U. after   10 cycles
 SCF Done:  E(RHF) =  -226.393397945     A.U. after    9 cycles
 SCF Done:  E(RHF) =  -226.393397949     A.U. after    8 cycles
 Optimization completed.
    -- Stationary point found.

                          Input orientation:
 ---------------------------------------------------------------------
 Center     Atomic      Atomic             Coordinates (Angstroms)
 Number     Number       Type             X           Y           Z
 ---------------------------------------------------------------------
      1          6           0        0.743289    0.581511    0.056540
      2          6           0        1.420327   -0.534539   -0.034494
      3          1           0        1.182600    1.557387    0.078331
      4          1           0        2.490260   -0.513366   -0.050738
      5          1           0        0.928168   -1.482800   -0.075470
      6          8           0       -0.655937    0.703262    0.046242
      7          8           0       -1.269202   -0.493180    0.616656
      8          1           0       -1.173949   -0.327517    1.572365
 ---------------------------------------------------------------------

 Alpha  occ. eigenvalues --  -20.53860 -20.52948 -11.24623 -11.17072  -1.48028
 Alpha  occ. eigenvalues --   -1.23788  -1.03758  -0.80257  -0.69861  -0.69295
 Alpha  occ. eigenvalues --   -0.63584  -0.58627  -0.55766  -0.50358  -0.48271
 Alpha  occ. eigenvalues --   -0.37081
 Alpha virt. eigenvalues --    0.17344   0.24218   0.28563   0.29329   0.32793
 Alpha virt. eigenvalues --    0.37034   0.49582   0.57762   0.88249   0.96474
 Alpha virt. eigenvalues --    1.00161   1.06522   1.09809   1.11242   1.24051

 Mulliken charges:
               1
     1  C    0.115996
     2  C   -0.494436
     3  H    0.256683
     4  H    0.225188
     5  H    0.254766
     6  O   -0.394521
     7  O   -0.372247
     8  H    0.408570
 Sum of Mulliken charges =   0.00000

 Dipole moment (field-independent basis, Debye):
    X=              1.9179    Y=              0.0926    Z=              2.1036  Tot=              2.8481
 Quadrupole moment (field-independent basis, Debye-Ang):
   XX=            -23.6595   YY=            -22.6375   ZZ=            -21.0301
   XY=              0.9758   XZ=             -2.4043   YZ=             -0.2326

 Normal termination of Gaussian 09 at Fri Apr 12 17:25:10 2019.
