 Gaussian 09, Revision D.01,
 Gaussian 09:  AS64L-G09RevD.01 24-Apr-2013

 --------------------------------------------------------------------
 #p hf 3-21g scf=tight NoSymmetry guess=read opt=(tight,modredundant)
 --------------------------------------------------------------------

 -----------------------------------
 Geometry optimization at the 2D-PES
 -----------------------------------
 Symbolic Z-matrix:
 Charge =  0 Multiplicity = 1

 SCF Done:  E(RHF) =  -226.381250197     A.U. after   13 cycles
 SCF Done:  E(RHF) =  -226.381291043     A.U. after   13 cycles
 SCF Done:  E(RHF) =  -226.381313577     A.U. after   11 cycles
 SCF Done:  E(RHF) =  -226.381314261     A.U. after   11 cycles
 SCF Done:  E(RHF) =  -226.381314287     A.U. after    8 cycles
 SCF Done:  E(RHF) =  -226.381314293     A.U. after    6 cycles
 Optimization completed.
    -- Stationary point found.

                          Input orientation:
 ---------------------------------------------------------------------
 Center     Atomic      Atomic             Coordinates (Angstroms)
 Number     Number       Type             X           Y           Z
 ---------------------------------------------------------------------
      1          6           0        0.741165    0.560729    0.017054
      2          6           0        1.468693   -0.530684    0.026159
      3          1           0        1.165402    1.540925    0.078917
      4          1           0        2.533860   -0.447643    0.076508
      5          1           0        1.078134   -1.528219    0.003115
      6          8           0       -0.642110    0.693045   -0.029271
      7          8           0       -1.372328   -0.474223   -0.523812
      8          1           0       -0.716897   -1.189221   -0.575548
 ---------------------------------------------------------------------

 Alpha  occ. eigenvalues --  -20.54707 -20.53303 -11.26623 -11.18486  -1.48495
 Alpha  occ. eigenvalues --   -1.25115  -1.05502  -0.81542  -0.73623  -0.68188
 Alpha  occ. eigenvalues --   -0.64261  -0.58872  -0.54603  -0.54225  -0.49005
 Alpha  occ. eigenvalues --   -0.37423
 Alpha virt. eigenvalues --    0.17239   0.21164   0.26749   0.27411   0.35795
 Alpha virt. eigenvalues --    0.36974   0.49484   0.60390   0.87900   0.95164
 Alpha virt. eigenvalues --    1.01395   1.05291   1.07705   1.10741   1.23794

 Mulliken charges:
               1
     1  C    0.148602
     2  C   -0.537282
     3  H    0.274003
     4  H    0.243535
     5  H    0.208147
     6  O   -0.390348
     7  O   -0.362871
     8  H    0.416214
 Sum of Mulliken charges =   0.00000

 Dipole moment (field-independent basis, Debye):
    X=              2.9581    Y=             -1.3633    Z=             -0.1078  Tot=              3.2589
 Quadrupole moment (field-independent basis, Debye-Ang):
   XX=            -25.7803   YY=            -19.6902   ZZ=            -25.7176
   XY=              2.1978   XZ=             -0.3909   YZ=              1.0735

 Normal termination of Gaussian 09 at Fri Apr 12 14:56:53 2019.
