 Gaussian 09, Revision D.01,
 Gaussian 09:  AS64L-G09RevD.01 24-Apr-2013

 --------------------------------------------------------------------
 #p hf 3-21g scf=tight NoSymmetry guess=read opt=(tight,modredundant)
 --------------------------------------------------------------------

 -----------------------------------
 Geometry optimization at the 2D-PES
 -----------------------------------
 Symbolic Z-matrix:
 Charge =  0 Multiplicity = 1

 SCF Done:  E(RHF) =  -226.377715301     A.U. after   13 cycles
 SCF Done:  E(RHF) =  -226.377720478     A.U. after   11 cycles
 SCF Done:  E(RHF) =  -226.377722156     A.U. after    9 cycles
 SCF Done:  E(RHF) =  -226.377722238     A.U. after    8 cycles
 SCF Done:  E(RHF) =  -226.377722242     A.U. after    6 cycles
 Optimization completed.
    -- Stationary point found.

                          Input orientation:
 ---------------------------------------------------------------------
 Center     Atomic      Atomic             Coordinates (Angstroms)
 Number     Number       Type             X           Y           Z
 ---------------------------------------------------------------------
      1          6           0        0.770046    0.628220    0.040137
      2          6           0        1.385167   -0.525988   -0.003577
      3          1           0        1.289878    1.564861    0.096224
      4          1           0        2.454058   -0.570848    0.015850
      5          1           0        0.837761   -1.444248   -0.059322
      6          8           0       -0.627841    0.700833    0.015402
      7          8           0       -1.136988    2.074885    0.071954
      8          1           0       -0.348529    2.645244    0.115645
 ---------------------------------------------------------------------

 Alpha  occ. eigenvalues --  -20.54219 -20.53386 -11.26110 -11.17603  -1.48084
 Alpha  occ. eigenvalues --   -1.24823  -1.04214  -0.82294  -0.72045  -0.66936
 Alpha  occ. eigenvalues --   -0.64078  -0.58857  -0.55350  -0.52823  -0.49447
 Alpha  occ. eigenvalues --   -0.36411
 Alpha virt. eigenvalues --    0.18145   0.21598   0.23058   0.30983   0.34102
 Alpha virt. eigenvalues --    0.36016   0.52013   0.56358   0.88784   0.95726
 Alpha virt. eigenvalues --    0.99152   1.05448   1.09855   1.11248   1.22730

 Mulliken charges:
               1
     1  C    0.129978
     2  C   -0.493604
     3  H    0.225033
     4  H    0.230743
     5  H    0.250809
     6  O   -0.383798
     7  O   -0.358771
     8  H    0.399612
 Sum of Mulliken charges =   0.00000

 Dipole moment (field-independent basis, Debye):
    X=              3.3425    Y=              1.2970    Z=              0.1307  Tot=              3.5877
 Quadrupole moment (field-independent basis, Debye-Ang):
   XX=            -25.3273   YY=            -16.1237   ZZ=            -25.8223
   XY=              4.0930   XZ=              0.1897   YZ=              0.5483

 Normal termination of Gaussian 09 at Fri Apr 12 15:42:54 2019.
