 Gaussian 09, Revision D.01,
 Gaussian 09:  AS64L-G09RevD.01 24-Apr-2013

 --------------------------------------------------------------------
 #p hf 3-21g scf=tight NoSymmetry guess=read opt=(tight,modredundant)
 --------------------------------------------------------------------

 -----------------------------------
 Geometry optimization at the 2D-PES
 -----------------------------------
 Symbolic Z-matrix:
 Charge =  0 Multiplicity = 1

 SCF Done:  E(RHF) =  -226.389433758     A.U. after   12 cycles
 SCF Done:  E(RHF) =  -226.389455452     A.U. after   13 cycles
 SCF Done:  E(RHF) =  -226.389488626     A.U. after   12 cycles
 SCF Done:  E(RHF) =  -226.389488845     A.U. after    9 cycles
 SCF Done:  E(RHF) =  -226.389488903     A.U. after    9 cycles
 SCF Done:  E(RHF) =  -226.389488909     A.U. after    7 cycles
 Optimization completed.
    -- Stationary point found.

                          Input orientation:
 ---------------------------------------------------------------------
 Center     Atomic      Atomic             Coordinates (Angstroms)
 Number     Number       Type             X           Y           Z
 ---------------------------------------------------------------------
      1          6           0        0.742513    0.568458    0.073363
      2          6           0        1.439974   -0.534280   -0.040791
      3          1           0        1.181506    1.544112    0.089823
      4          1           0        2.507846   -0.483035   -0.080824
      5          1           0        1.003232   -1.510999   -0.041898
      6          8           0       -0.648859    0.703140    0.060638
      7          8           0       -1.317666   -0.479541    0.589811
      8          1           0       -1.155714   -1.148308   -0.099875
 ---------------------------------------------------------------------

 Alpha  occ. eigenvalues --  -20.54338 -20.53355 -11.25458 -11.17718  -1.48513
 Alpha  occ. eigenvalues --   -1.24428  -1.04514  -0.80513  -0.72196  -0.68194
 Alpha  occ. eigenvalues --   -0.65918  -0.57483  -0.54430  -0.52688  -0.48922
 Alpha  occ. eigenvalues --   -0.37369
 Alpha virt. eigenvalues --    0.17271   0.22246   0.27959   0.28455   0.34498
 Alpha virt. eigenvalues --    0.36833   0.49667   0.58284   0.88199   0.96150
 Alpha virt. eigenvalues --    0.99047   1.06029   1.09104   1.11237   1.25227

 Mulliken charges:
               1
     1  C    0.149162
     2  C   -0.511368
     3  H    0.265209
     4  H    0.234755
     5  H    0.213159
     6  O   -0.397070
     7  O   -0.363640
     8  H    0.409791
 Sum of Mulliken charges =   0.00000

 Dipole moment (field-independent basis, Debye):
    X=              1.9836    Y=             -1.4074    Z=             -1.2441  Tot=              2.7319
 Quadrupole moment (field-independent basis, Debye-Ang):
   XX=            -23.8343   YY=            -19.9953   ZZ=            -26.4146
   XY=              3.2335   XZ=              1.8785   YZ=              1.1427

 Normal termination of Gaussian 09 at Fri Apr 12 17:30:40 2019.
