 Gaussian 09, Revision D.01,
 Gaussian 09:  AS64L-G09RevD.01 24-Apr-2013

 --------------------------------------------------------------------
 #p hf 3-21g scf=tight NoSymmetry guess=read opt=(tight,modredundant)
 --------------------------------------------------------------------

 -----------------------------------
 Geometry optimization at the 2D-PES
 -----------------------------------
 Symbolic Z-matrix:
 Charge =  0 Multiplicity = 1

 SCF Done:  E(RHF) =  -226.381221947     A.U. after   13 cycles
 SCF Done:  E(RHF) =  -226.381229908     A.U. after   11 cycles
 SCF Done:  E(RHF) =  -226.381233681     A.U. after   10 cycles
 SCF Done:  E(RHF) =  -226.381233779     A.U. after    8 cycles
 SCF Done:  E(RHF) =  -226.381233787     A.U. after    7 cycles
 Optimization completed.
    -- Stationary point found.

                          Input orientation:
 ---------------------------------------------------------------------
 Center     Atomic      Atomic             Coordinates (Angstroms)
 Number     Number       Type             X           Y           Z
 ---------------------------------------------------------------------
      1          6           0        0.753507    0.632716    0.023947
      2          6           0        1.389617   -0.510695   -0.008084
      3          1           0        1.233937    1.588412    0.103250
      4          1           0        2.457962   -0.546581    0.055966
      5          1           0        0.851813   -1.434253   -0.075926
      6          8           0       -0.652266    0.673114    0.037897
      7          8           0       -1.154640    1.408714   -1.142885
      8          1           0       -0.354390    1.677631   -1.630806
 ---------------------------------------------------------------------

 Alpha  occ. eigenvalues --  -20.53210 -20.52080 -11.25171 -11.19232  -1.46652
 Alpha  occ. eigenvalues --   -1.23756  -1.04642  -0.81629  -0.71609  -0.67607
 Alpha  occ. eigenvalues --   -0.60945  -0.59426  -0.56314  -0.52770  -0.45291
 Alpha  occ. eigenvalues --   -0.38902
 Alpha virt. eigenvalues --    0.14062   0.25669   0.27220   0.29957   0.31812
 Alpha virt. eigenvalues --    0.35356   0.49097   0.55664   0.87636   0.96108
 Alpha virt. eigenvalues --    0.98406   1.05983   1.09145   1.11122   1.24240

 Mulliken charges:
               1
     1  C    0.072624
     2  C   -0.452336
     3  H    0.238223
     4  H    0.233616
     5  H    0.258513
     6  O   -0.374371
     7  O   -0.374748
     8  H    0.398479
 Sum of Mulliken charges =   0.00000

 Dipole moment (field-independent basis, Debye):
    X=              3.6720    Y=              0.2244    Z=             -1.0554  Tot=              3.8273
 Quadrupole moment (field-independent basis, Debye-Ang):
   XX=            -25.2284   YY=            -20.3808   ZZ=            -22.7949
   XY=              3.0684   XZ=             -1.2317   YZ=             -2.2801

 Normal termination of Gaussian 09 at Fri Apr 12 15:17:28 2019.
