 Gaussian 09, Revision D.01,
 Gaussian 09:  AS64L-G09RevD.01 24-Apr-2013

 --------------------------------------------------------------------
 #p hf 3-21g scf=tight NoSymmetry guess=read opt=(tight,modredundant)
 --------------------------------------------------------------------

 -----------------------------------
 Geometry optimization at the 2D-PES
 -----------------------------------
 Symbolic Z-matrix:
 Charge =  0 Multiplicity = 1

 SCF Done:  E(RHF) =  -226.396140333     A.U. after   13 cycles
 SCF Done:  E(RHF) =  -226.396141288     A.U. after   11 cycles
 SCF Done:  E(RHF) =  -226.396142372     A.U. after   10 cycles
 SCF Done:  E(RHF) =  -226.396142390     A.U. after    8 cycles
 SCF Done:  E(RHF) =  -226.396142392     A.U. after    6 cycles
 Optimization completed.
    -- Stationary point found.

                          Input orientation:
 ---------------------------------------------------------------------
 Center     Atomic      Atomic             Coordinates (Angstroms)
 Number     Number       Type             X           Y           Z
 ---------------------------------------------------------------------
      1          6           0        0.731887    0.581048    0.058487
      2          6           0        1.407663   -0.535174   -0.036178
      3          1           0        1.176221    1.554495    0.089441
      4          1           0        2.477706   -0.511384   -0.049539
      5          1           0        0.920190   -1.485737   -0.066153
      6          8           0       -0.658313    0.710611    0.043042
      7          8           0       -1.249555   -0.506112    0.611642
      8          1           0       -2.170057   -0.203434    0.686435
 ---------------------------------------------------------------------

 Alpha  occ. eigenvalues --  -20.53341 -20.52405 -11.23971 -11.16000  -1.47287
 Alpha  occ. eigenvalues --   -1.23753  -1.02701  -0.78949  -0.71583  -0.64694
 Alpha  occ. eigenvalues --   -0.64301  -0.61258  -0.53808  -0.50854  -0.47205
 Alpha  occ. eigenvalues --   -0.35767
 Alpha virt. eigenvalues --    0.18491   0.24443   0.28854   0.30609   0.33814
 Alpha virt. eigenvalues --    0.37375   0.50326   0.58611   0.89322   0.97625
 Alpha virt. eigenvalues --    1.00310   1.07525   1.10793   1.12662   1.24196

 Mulliken charges:
               1
     1  C    0.152416
     2  C   -0.493053
     3  H    0.253416
     4  H    0.219745
     5  H    0.253541
     6  O   -0.423312
     7  O   -0.385299
     8  H    0.422546
 Sum of Mulliken charges =   0.00000

 Dipole moment (field-independent basis, Debye):
    X=             -0.2904    Y=              0.3650    Z=              0.3351  Tot=              0.5743
 Quadrupole moment (field-independent basis, Debye-Ang):
   XX=            -16.0341   YY=            -22.8255   ZZ=            -25.5376
   XY=              1.1679   XZ=             -1.6746   YZ=              0.5866

 Normal termination of Gaussian 09 at Fri Apr 12 17:27:43 2019.
