 Gaussian 09, Revision D.01,
 Gaussian 09:  AS64L-G09RevD.01 24-Apr-2013

 --------------------------------------------------------------------
 #p hf 3-21g scf=tight NoSymmetry guess=read opt=(tight,modredundant)
 --------------------------------------------------------------------

 -----------------------------------
 Geometry optimization at the 2D-PES
 -----------------------------------
 Symbolic Z-matrix:
 Charge =  0 Multiplicity = 1

 SCF Done:  E(RHF) =  -226.388539147     A.U. after   13 cycles
 SCF Done:  E(RHF) =  -226.388556942     A.U. after   13 cycles
 SCF Done:  E(RHF) =  -226.388573790     A.U. after   12 cycles
 SCF Done:  E(RHF) =  -226.388573915     A.U. after    9 cycles
 SCF Done:  E(RHF) =  -226.388573939     A.U. after    8 cycles
 SCF Done:  E(RHF) =  -226.388573940     A.U. after    6 cycles
 Optimization completed.
    -- Stationary point found.

                          Input orientation:
 ---------------------------------------------------------------------
 Center     Atomic      Atomic             Coordinates (Angstroms)
 Number     Number       Type             X           Y           Z
 ---------------------------------------------------------------------
      1          6           0        0.747802    0.635135    0.052468
      2          6           0        1.376257   -0.510976   -0.003267
      3          1           0        1.234831    1.586496    0.108491
      4          1           0        2.445798   -0.543117   -0.023182
      5          1           0        0.839320   -1.436708   -0.035956
      6          8           0       -0.654891    0.688638    0.000324
      7          8           0       -1.109531    1.966316    0.545734
      8          1           0       -0.822227    2.601802   -0.135771
 ---------------------------------------------------------------------

 Alpha  occ. eigenvalues --  -20.54039 -20.53254 -11.25092 -11.17250  -1.48270
 Alpha  occ. eigenvalues --   -1.24240  -1.03588  -0.80963  -0.71310  -0.67827
 Alpha  occ. eigenvalues --   -0.65163  -0.56780  -0.55222  -0.52658  -0.48785
 Alpha  occ. eigenvalues --   -0.36744
 Alpha virt. eigenvalues --    0.18189   0.22413   0.25544   0.31465   0.33831
 Alpha virt. eigenvalues --    0.35426   0.49900   0.56870   0.89291   0.96493
 Alpha virt. eigenvalues --    0.99129   1.06195   1.10115   1.11038   1.24614

 Mulliken charges:
               1
     1  C    0.141679
     2  C   -0.495453
     3  H    0.235032
     4  H    0.228625
     5  H    0.247280
     6  O   -0.392170
     7  O   -0.367189
     8  H    0.402194
 Sum of Mulliken charges =   0.00000

 Dipole moment (field-independent basis, Debye):
    X=              2.3583    Y=              1.4765    Z=             -1.2558  Tot=              3.0526
 Quadrupole moment (field-independent basis, Debye-Ang):
   XX=            -24.2597   YY=            -15.6171   ZZ=            -26.3016
   XY=              1.2036   XZ=              1.4386   YZ=             -2.8154

 Normal termination of Gaussian 09 at Fri Apr 12 15:52:15 2019.
