 Gaussian 09, Revision D.01,
 Gaussian 09:  AS64L-G09RevD.01 24-Apr-2013

 --------------------------------------------------------------------
 #p hf 3-21g scf=tight NoSymmetry guess=read opt=(tight,modredundant)
 --------------------------------------------------------------------

 -----------------------------------
 Geometry optimization at the 2D-PES
 -----------------------------------
 Symbolic Z-matrix:
 Charge =  0 Multiplicity = 1

 SCF Done:  E(RHF) =  -226.382411544     A.U. after   13 cycles
 SCF Done:  E(RHF) =  -226.382434335     A.U. after   13 cycles
 SCF Done:  E(RHF) =  -226.382466097     A.U. after   12 cycles
 SCF Done:  E(RHF) =  -226.382466295     A.U. after    9 cycles
 SCF Done:  E(RHF) =  -226.382466340     A.U. after    9 cycles
 SCF Done:  E(RHF) =  -226.382466341     A.U. after    6 cycles
 Optimization completed.
    -- Stationary point found.

                          Input orientation:
 ---------------------------------------------------------------------
 Center     Atomic      Atomic             Coordinates (Angstroms)
 Number     Number       Type             X           Y           Z
 ---------------------------------------------------------------------
      1          6           0        0.760943    0.631059    0.056967
      2          6           0        1.381484   -0.519242   -0.000842
      3          1           0        1.269018    1.574599    0.093363
      4          1           0        2.450579   -0.559301   -0.026616
      5          1           0        0.836644   -1.440321   -0.030153
      6          8           0       -0.638137    0.698313   -0.004379
      7          8           0       -1.135609    1.965558    0.536649
      8          1           0       -0.501538    2.631193    0.211646
 ---------------------------------------------------------------------

 Alpha  occ. eigenvalues --  -20.54144 -20.53242 -11.25675 -11.17661  -1.48117
 Alpha  occ. eigenvalues --   -1.24512  -1.04042  -0.81841  -0.71543  -0.67603
 Alpha  occ. eigenvalues --   -0.64407  -0.57880  -0.55719  -0.52407  -0.48962
 Alpha  occ. eigenvalues --   -0.36819
 Alpha virt. eigenvalues --    0.17700   0.22446   0.23851   0.31080   0.34179
 Alpha virt. eigenvalues --    0.35635   0.51102   0.56438   0.88955   0.95971
 Alpha virt. eigenvalues --    0.99115   1.05641   1.09955   1.11132   1.23632

 Mulliken charges:
               1
     1  C    0.133024
     2  C   -0.489618
     3  H    0.224172
     4  H    0.230236
     5  H    0.250701
     6  O   -0.384843
     7  O   -0.362065
     8  H    0.398393
 Sum of Mulliken charges =   0.00000

 Dipole moment (field-independent basis, Debye):
    X=              3.0637    Y=              1.4117    Z=             -0.5257  Tot=              3.4140
 Quadrupole moment (field-independent basis, Debye-Ang):
   XX=            -25.0920   YY=            -15.4529   ZZ=            -26.3057
   XY=              2.9854   XZ=              0.9140   YZ=             -0.8005

 Normal termination of Gaussian 09 at Fri Apr 12 15:53:09 2019.
