 Gaussian 09, Revision D.01,
 Gaussian 09:  AS64L-G09RevD.01 24-Apr-2013

 --------------------------------------------------------------------
 #p hf 3-21g scf=tight NoSymmetry guess=read opt=(tight,modredundant)
 --------------------------------------------------------------------

 -----------------------------------
 Geometry optimization at the 2D-PES
 -----------------------------------
 Symbolic Z-matrix:
 Charge =  0 Multiplicity = 1

 SCF Done:  E(RHF) =  -226.391942023     A.U. after   13 cycles
 SCF Done:  E(RHF) =  -226.391946219     A.U. after   11 cycles
 SCF Done:  E(RHF) =  -226.391949018     A.U. after   10 cycles
 SCF Done:  E(RHF) =  -226.391949053     A.U. after    8 cycles
 SCF Done:  E(RHF) =  -226.391949057     A.U. after    6 cycles
 Optimization completed.
    -- Stationary point found.

                          Input orientation:
 ---------------------------------------------------------------------
 Center     Atomic      Atomic             Coordinates (Angstroms)
 Number     Number       Type             X           Y           Z
 ---------------------------------------------------------------------
      1          6           0        0.729295    0.619083    0.041536
      2          6           0        1.377566   -0.515197   -0.007796
      3          1           0        1.199157    1.577817    0.116771
      4          1           0        2.448189   -0.535179    0.011003
      5          1           0        0.854005   -1.447604   -0.064506
      6          8           0       -0.678420    0.674667   -0.013920
      7          8           0       -1.173319    0.353260    1.339487
      8          1           0       -1.901632    0.995151    1.401439
 ---------------------------------------------------------------------

 Alpha  occ. eigenvalues --  -20.52139 -20.51518 -11.23505 -11.17555  -1.45939
 Alpha  occ. eigenvalues --   -1.22814  -1.03056  -0.79089  -0.70141  -0.66129
 Alpha  occ. eigenvalues --   -0.64547  -0.58426  -0.55125  -0.49897  -0.44166
 Alpha  occ. eigenvalues --   -0.38308
 Alpha virt. eigenvalues --    0.15529   0.27123   0.29366   0.30801   0.32199
 Alpha virt. eigenvalues --    0.36684   0.49638   0.56848   0.88812   0.97667
 Alpha virt. eigenvalues --    0.98760   1.07100   1.10454   1.12855   1.23200

 Mulliken charges:
               1
     1  C    0.132000
     2  C   -0.447147
     3  H    0.232401
     4  H    0.225749
     5  H    0.251266
     6  O   -0.416821
     7  O   -0.389302
     8  H    0.411853
 Sum of Mulliken charges =   0.00000

 Dipole moment (field-independent basis, Debye):
    X=              0.5298    Y=              1.0055    Z=              0.4513  Tot=              1.2228
 Quadrupole moment (field-independent basis, Debye-Ang):
   XX=            -17.9962   YY=            -20.3150   ZZ=            -25.2235
   XY=             -2.2317   XZ=             -2.4762   YZ=              2.4284

 Normal termination of Gaussian 09 at Fri Apr 12 16:46:01 2019.
