 Gaussian 09, Revision D.01,
 Gaussian 09:  AS64L-G09RevD.01 24-Apr-2013

 --------------------------------------------------------------------
 #p hf 3-21g scf=tight NoSymmetry guess=read opt=(tight,modredundant)
 --------------------------------------------------------------------

 -----------------------------------
 Geometry optimization at the 2D-PES
 -----------------------------------
 Symbolic Z-matrix:
 Charge =  0 Multiplicity = 1

 SCF Done:  E(RHF) =  -226.393584029     A.U. after   13 cycles
 SCF Done:  E(RHF) =  -226.393594704     A.U. after   12 cycles
 SCF Done:  E(RHF) =  -226.393605429     A.U. after   11 cycles
 SCF Done:  E(RHF) =  -226.393605526     A.U. after    9 cycles
 SCF Done:  E(RHF) =  -226.393605534     A.U. after    8 cycles
 SCF Done:  E(RHF) =  -226.393605535     A.U. after    7 cycles
 Optimization completed.
    -- Stationary point found.

                          Input orientation:
 ---------------------------------------------------------------------
 Center     Atomic      Atomic             Coordinates (Angstroms)
 Number     Number       Type             X           Y           Z
 ---------------------------------------------------------------------
      1          6           0        0.743196    0.577869    0.043504
      2          6           0        1.427561   -0.535094   -0.040020
      3          1           0        1.176510    1.555667    0.080821
      4          1           0        2.497127   -0.505882   -0.046514
      5          1           0        0.945070   -1.486502   -0.107625
      6          8           0       -0.651816    0.702145    0.046427
      7          8           0       -1.280121   -0.562167    0.412973
      8          1           0       -1.051148   -0.638772    1.358468
 ---------------------------------------------------------------------

 Alpha  occ. eigenvalues --  -20.54291 -20.53248 -11.25057 -11.17163  -1.48486
 Alpha  occ. eigenvalues --   -1.24130  -1.04074  -0.80526  -0.70447  -0.69456
 Alpha  occ. eigenvalues --   -0.64283  -0.57519  -0.56055  -0.51598  -0.48516
 Alpha  occ. eigenvalues --   -0.37104
 Alpha virt. eigenvalues --    0.17926   0.23291   0.28332   0.29116   0.32678
 Alpha virt. eigenvalues --    0.36928   0.49474   0.57868   0.88134   0.96487
 Alpha virt. eigenvalues --    0.99923   1.06212   1.09476   1.11012   1.24528

 Mulliken charges:
               1
     1  C    0.122915
     2  C   -0.510256
     3  H    0.262136
     4  H    0.227080
     5  H    0.249745
     6  O   -0.391414
     7  O   -0.367799
     8  H    0.407594
 Sum of Mulliken charges =   0.00000

 Dipole moment (field-independent basis, Debye):
    X=              2.1196    Y=             -0.3099    Z=              2.0029  Tot=              2.9326
 Quadrupole moment (field-independent basis, Debye-Ang):
   XX=            -24.3191   YY=            -22.1301   ZZ=            -22.0033
   XY=              1.5050   XZ=             -1.9846   YZ=             -1.1670

 Normal termination of Gaussian 09 at Fri Apr 12 17:40:35 2019.
