 Gaussian 09, Revision D.01,
 Gaussian 09:  AS64L-G09RevD.01 24-Apr-2013

 --------------------------------------------------------------------
 #p hf 3-21g scf=tight NoSymmetry guess=read opt=(tight,modredundant)
 --------------------------------------------------------------------

 -----------------------------------
 Geometry optimization at the 2D-PES
 -----------------------------------
 Symbolic Z-matrix:
 Charge =  0 Multiplicity = 1

 SCF Done:  E(RHF) =  -226.388333606     A.U. after   12 cycles
 SCF Done:  E(RHF) =  -226.388338911     A.U. after   12 cycles
 SCF Done:  E(RHF) =  -226.388345126     A.U. after   10 cycles
 SCF Done:  E(RHF) =  -226.388345132     A.U. after    7 cycles
 SCF Done:  E(RHF) =  -226.388345134     A.U. after    6 cycles
 Optimization completed.
    -- Stationary point found.

                          Input orientation:
 ---------------------------------------------------------------------
 Center     Atomic      Atomic             Coordinates (Angstroms)
 Number     Number       Type             X           Y           Z
 ---------------------------------------------------------------------
      1          6           0        0.743449    0.611441    0.048129
      2          6           0        1.392543   -0.521797   -0.015364
      3          1           0        1.214230    1.572741    0.090034
      4          1           0        2.463414   -0.540342   -0.012249
      5          1           0        0.868642   -1.454845   -0.057722
      6          8           0       -0.668590    0.687911    0.005704
      7          8           0       -1.215481    0.142406    1.255641
      8          1           0       -1.103085    0.890211    1.870168
 ---------------------------------------------------------------------

 Alpha  occ. eigenvalues --  -20.52608 -20.51991 -11.23983 -11.18113  -1.46575
 Alpha  occ. eigenvalues --   -1.22917  -1.03728  -0.80193  -0.69660  -0.68323
 Alpha  occ. eigenvalues --   -0.61716  -0.59818  -0.56437  -0.48089  -0.46388
 Alpha  occ. eigenvalues --   -0.38608
 Alpha virt. eigenvalues --    0.14908   0.26451   0.28704   0.29892   0.31863
 Alpha virt. eigenvalues --    0.36616   0.49634   0.56353   0.88050   0.96744
 Alpha virt. eigenvalues --    0.98803   1.06172   1.09624   1.11277   1.24646

 Mulliken charges:
               1
     1  C    0.096076
     2  C   -0.445800
     3  H    0.236290
     4  H    0.227602
     5  H    0.257197
     6  O   -0.395186
     7  O   -0.377659
     8  H    0.401481
 Sum of Mulliken charges =   0.00000

 Dipole moment (field-independent basis, Debye):
    X=              2.2780    Y=              1.0923    Z=              1.5074  Tot=              2.9419
 Quadrupole moment (field-independent basis, Debye-Ang):
   XX=            -23.4693   YY=            -20.5781   ZZ=            -21.4579
   XY=             -0.6717   XZ=             -1.2413   YZ=              3.5804

 Normal termination of Gaussian 09 at Fri Apr 12 16:51:28 2019.
