 Gaussian 09, Revision D.01,
 Gaussian 09:  AS64L-G09RevD.01 24-Apr-2013

 --------------------------------------------------------------------
 #p hf 3-21g scf=tight NoSymmetry guess=read opt=(tight,modredundant)
 --------------------------------------------------------------------

 -----------------------------------
 Geometry optimization at the 2D-PES
 -----------------------------------
 Symbolic Z-matrix:
 Charge =  0 Multiplicity = 1

 SCF Done:  E(RHF) =  -226.385245177     A.U. after   13 cycles
 SCF Done:  E(RHF) =  -226.385254437     A.U. after   12 cycles
 SCF Done:  E(RHF) =  -226.385264674     A.U. after   11 cycles
 SCF Done:  E(RHF) =  -226.385264723     A.U. after    9 cycles
 SCF Done:  E(RHF) =  -226.385264730     A.U. after    8 cycles
 Optimization completed.
    -- Stationary point found.

                          Input orientation:
 ---------------------------------------------------------------------
 Center     Atomic      Atomic             Coordinates (Angstroms)
 Number     Number       Type             X           Y           Z
 ---------------------------------------------------------------------
      1          6           0        0.729926    0.613563    0.027826
      2          6           0        1.395254   -0.514439   -0.005228
      3          1           0        1.194208    1.576123    0.069334
      4          1           0        2.465548   -0.515256    0.012890
      5          1           0        0.903956   -1.468186   -0.023169
      6          8           0       -0.680774    0.675199    0.018765
      7          8           0       -1.190426    0.268829   -1.299502
      8          1           0       -0.856086   -0.641165   -1.388727
 ---------------------------------------------------------------------

 Alpha  occ. eigenvalues --  -20.53022 -20.52382 -11.25185 -11.19148  -1.47010
 Alpha  occ. eigenvalues --   -1.23437  -1.04933  -0.80507  -0.72575  -0.66445
 Alpha  occ. eigenvalues --   -0.64285  -0.59152  -0.55984  -0.50465  -0.46414
 Alpha  occ. eigenvalues --   -0.39208
 Alpha virt. eigenvalues --    0.14447   0.23437   0.28144   0.29595   0.32783
 Alpha virt. eigenvalues --    0.36380   0.49903   0.55694   0.87688   0.95877
 Alpha virt. eigenvalues --    0.98858   1.05449   1.08625   1.10750   1.24969

 Mulliken charges:
               1
     1  C    0.124927
     2  C   -0.483264
     3  H    0.253052
     4  H    0.239463
     5  H    0.227358
     6  O   -0.393284
     7  O   -0.368996
     8  H    0.400744
 Sum of Mulliken charges =   0.00000

 Dipole moment (field-independent basis, Debye):
    X=              2.7011    Y=             -1.9494    Z=             -0.3506  Tot=              3.3495
 Quadrupole moment (field-independent basis, Debye-Ang):
   XX=            -24.2641   YY=            -21.2948   ZZ=            -25.1448
   XY=              3.1313   XZ=             -0.4574   YZ=              2.6295

 Normal termination of Gaussian 09 at Fri Apr 12 15:01:10 2019.
