 Gaussian 09, Revision D.01,
 Gaussian 09:  AS64L-G09RevD.01 24-Apr-2013

 --------------------------------------------------------------------
 #p hf 3-21g scf=tight NoSymmetry guess=read opt=(tight,modredundant)
 --------------------------------------------------------------------

 -----------------------------------
 Geometry optimization at the 2D-PES
 -----------------------------------
 Symbolic Z-matrix:
 Charge =  0 Multiplicity = 1

 SCF Done:  E(RHF) =  -226.394278716     A.U. after   13 cycles
 SCF Done:  E(RHF) =  -226.394284529     A.U. after   11 cycles
 SCF Done:  E(RHF) =  -226.394288493     A.U. after   10 cycles
 SCF Done:  E(RHF) =  -226.394288515     A.U. after    8 cycles
 SCF Done:  E(RHF) =  -226.394288520     A.U. after    7 cycles
 Optimization completed.
    -- Stationary point found.

                          Input orientation:
 ---------------------------------------------------------------------
 Center     Atomic      Atomic             Coordinates (Angstroms)
 Number     Number       Type             X           Y           Z
 ---------------------------------------------------------------------
      1          6           0        0.726612    0.638266    0.024111
      2          6           0        1.370199   -0.500554   -0.023672
      3          1           0        1.183933    1.602752    0.066453
      4          1           0        2.439710   -0.524877    0.018328
      5          1           0        0.844982   -1.432591   -0.077576
      6          8           0       -0.679960    0.664134    0.055090
      7          8           0       -1.096987    1.609401   -0.988316
      8          1           0       -1.335290    0.997822   -1.707372
 ---------------------------------------------------------------------

 Alpha  occ. eigenvalues --  -20.53338 -20.52376 -11.24358 -11.17746  -1.47417
 Alpha  occ. eigenvalues --   -1.23584  -1.03509  -0.79897  -0.72017  -0.65885
 Alpha  occ. eigenvalues --   -0.63200  -0.60981  -0.55724  -0.48210  -0.48058
 Alpha  occ. eigenvalues --   -0.38083
 Alpha virt. eigenvalues --    0.16627   0.25263   0.27776   0.31087   0.32653
 Alpha virt. eigenvalues --    0.35770   0.49065   0.56700   0.89282   0.96545
 Alpha virt. eigenvalues --    0.99109   1.06460   1.10092   1.11747   1.23169

 Mulliken charges:
               1
     1  C    0.136715
     2  C   -0.484295
     3  H    0.252844
     4  H    0.229856
     5  H    0.240406
     6  O   -0.400238
     7  O   -0.385098
     8  H    0.409809
 Sum of Mulliken charges =   0.00000

 Dipole moment (field-independent basis, Debye):
    X=              1.4113    Y=             -1.1781    Z=             -1.6705  Tot=              2.4840
 Quadrupole moment (field-independent basis, Debye-Ang):
   XX=            -21.8745   YY=            -25.2761   ZZ=            -21.3840
   XY=              2.2121   XZ=              3.0164   YZ=             -0.1038

 Normal termination of Gaussian 09 at Fri Apr 12 15:20:37 2019.
