 Gaussian 09, Revision D.01,
 Gaussian 09:  AS64L-G09RevD.01 24-Apr-2013

 --------------------------------------------------------------------
 #p hf 3-21g scf=tight NoSymmetry guess=read opt=(tight,modredundant)
 --------------------------------------------------------------------

 -----------------------------------
 Geometry optimization at the 2D-PES
 -----------------------------------
 Symbolic Z-matrix:
 Charge =  0 Multiplicity = 1

 SCF Done:  E(RHF) =  -226.388614653     A.U. after   12 cycles
 SCF Done:  E(RHF) =  -226.388638361     A.U. after   12 cycles
 SCF Done:  E(RHF) =  -226.388655784     A.U. after   12 cycles
 SCF Done:  E(RHF) =  -226.388655974     A.U. after    9 cycles
 SCF Done:  E(RHF) =  -226.388656008     A.U. after    8 cycles
 SCF Done:  E(RHF) =  -226.388656010     A.U. after    7 cycles
 Optimization completed.
    -- Stationary point found.

                          Input orientation:
 ---------------------------------------------------------------------
 Center     Atomic      Atomic             Coordinates (Angstroms)
 Number     Number       Type             X           Y           Z
 ---------------------------------------------------------------------
      1          6           0        0.748511    0.634798    0.058597
      2          6           0        1.376238   -0.511384    0.001454
      3          1           0        1.238086    1.585938    0.107906
      4          1           0        2.445655   -0.546268   -0.024516
      5          1           0        0.836133   -1.435254   -0.030060
      6          8           0       -0.653028    0.690179   -0.013418
      7          8           0       -1.125799    1.847321    0.747856
      8          1           0       -0.829182    2.597400    0.199803
 ---------------------------------------------------------------------

 Alpha  occ. eigenvalues --  -20.53924 -20.53044 -11.25028 -11.17463  -1.48056
 Alpha  occ. eigenvalues --   -1.24134  -1.03642  -0.80982  -0.70874  -0.68261
 Alpha  occ. eigenvalues --   -0.64914  -0.56749  -0.55731  -0.51769  -0.48649
 Alpha  occ. eigenvalues --   -0.37046
 Alpha virt. eigenvalues --    0.17639   0.23142   0.25442   0.31351   0.33894
 Alpha virt. eigenvalues --    0.35365   0.49905   0.56751   0.89212   0.96469
 Alpha virt. eigenvalues --    0.99049   1.06164   1.10066   1.11059   1.24669

 Mulliken charges:
               1
     1  C    0.141488
     2  C   -0.488474
     3  H    0.228653
     4  H    0.228730
     5  H    0.248997
     6  O   -0.391538
     7  O   -0.368753
     8  H    0.400897
 Sum of Mulliken charges =   0.00000

 Dipole moment (field-independent basis, Debye):
    X=              2.4149    Y=              1.5954    Z=             -0.9423  Tot=              3.0439
 Quadrupole moment (field-independent basis, Debye-Ang):
   XX=            -24.2660   YY=            -14.8109   ZZ=            -26.8314
   XY=              0.9201   XZ=              1.2829   YZ=             -1.5827

 Normal termination of Gaussian 09 at Fri Apr 12 15:56:45 2019.
