 Gaussian 09, Revision D.01,
 Gaussian 09:  AS64L-G09RevD.01 24-Apr-2013

 --------------------------------------------------------------------
 #p hf 3-21g scf=tight NoSymmetry guess=read opt=(tight,modredundant)
 --------------------------------------------------------------------

 -----------------------------------
 Geometry optimization at the 2D-PES
 -----------------------------------
 Symbolic Z-matrix:
 Charge =  0 Multiplicity = 1

 SCF Done:  E(RHF) =  -226.379527856     A.U. after   13 cycles
 SCF Done:  E(RHF) =  -226.379536008     A.U. after   13 cycles
 SCF Done:  E(RHF) =  -226.379554151     A.U. after   12 cycles
 SCF Done:  E(RHF) =  -226.379554204     A.U. after    9 cycles
 SCF Done:  E(RHF) =  -226.379554212     A.U. after    8 cycles
 Optimization completed.
    -- Stationary point found.

                          Input orientation:
 ---------------------------------------------------------------------
 Center     Atomic      Atomic             Coordinates (Angstroms)
 Number     Number       Type             X           Y           Z
 ---------------------------------------------------------------------
      1          6           0        0.768540    0.628584    0.059833
      2          6           0        1.384231   -0.524363    0.000197
      3          1           0        1.284831    1.569070    0.081069
      4          1           0        2.453089   -0.568786   -0.027566
      5          1           0        0.835140   -1.442856   -0.029497
      6          8           0       -0.628396    0.703331   -0.005617
      7          8           0       -1.146618    1.965943    0.533791
      8          1           0       -0.391160    2.581293    0.514195
 ---------------------------------------------------------------------

 Alpha  occ. eigenvalues --  -20.54138 -20.53172 -11.25902 -11.17833  -1.47946
 Alpha  occ. eigenvalues --   -1.24643  -1.04217  -0.82156  -0.71755  -0.67406
 Alpha  occ. eigenvalues --   -0.63747  -0.58625  -0.55712  -0.52552  -0.48883
 Alpha  occ. eigenvalues --   -0.36790
 Alpha virt. eigenvalues --    0.17307   0.22679   0.23377   0.30917   0.34201
 Alpha virt. eigenvalues --    0.35707   0.51505   0.56274   0.88815   0.95767
 Alpha virt. eigenvalues --    0.99216   1.05430   1.09829   1.11217   1.23095

 Mulliken charges:
               1
     1  C    0.126353
     2  C   -0.487202
     3  H    0.223080
     4  H    0.231002
     5  H    0.252015
     6  O   -0.382120
     7  O   -0.361650
     8  H    0.398522
 Sum of Mulliken charges =   0.00000

 Dipole moment (field-independent basis, Debye):
    X=              3.3143    Y=              1.2707    Z=              0.0829  Tot=              3.5505
 Quadrupole moment (field-independent basis, Debye-Ang):
   XX=            -25.2726   YY=            -16.0394   ZZ=            -25.8568
   XY=              3.6667   XZ=              0.7123   YZ=              0.8635

 Normal termination of Gaussian 09 at Fri Apr 12 15:53:46 2019.
