 Gaussian 09, Revision D.01,
 Gaussian 09:  AS64L-G09RevD.01 24-Apr-2013

 --------------------------------------------------------------------
 #p hf 3-21g scf=tight NoSymmetry guess=read opt=(tight,modredundant)
 --------------------------------------------------------------------

 -----------------------------------
 Geometry optimization at the 2D-PES
 -----------------------------------
 Symbolic Z-matrix:
 Charge =  0 Multiplicity = 1

 SCF Done:  E(RHF) =  -226.387177701     A.U. after   13 cycles
 SCF Done:  E(RHF) =  -226.387192485     A.U. after   12 cycles
 SCF Done:  E(RHF) =  -226.387206803     A.U. after   12 cycles
 SCF Done:  E(RHF) =  -226.387206988     A.U. after   10 cycles
 SCF Done:  E(RHF) =  -226.387207019     A.U. after    9 cycles
 SCF Done:  E(RHF) =  -226.387207020     A.U. after    7 cycles
 Optimization completed.
    -- Stationary point found.

                          Input orientation:
 ---------------------------------------------------------------------
 Center     Atomic      Atomic             Coordinates (Angstroms)
 Number     Number       Type             X           Y           Z
 ---------------------------------------------------------------------
      1          6           0        0.747777    0.591942    0.047969
      2          6           0        1.420344   -0.530065   -0.031403
      3          1           0        1.193677    1.564319    0.070512
      4          1           0        2.490421   -0.519670   -0.037519
      5          1           0        0.923150   -1.476759   -0.088382
      6          8           0       -0.651986    0.696010    0.038241
      7          8           0       -1.264362   -0.377100    0.829582
      8          1           0       -0.672802   -0.447877    1.603381
 ---------------------------------------------------------------------

 Alpha  occ. eigenvalues --  -20.53758 -20.52816 -11.25398 -11.18335  -1.47740
 Alpha  occ. eigenvalues --   -1.23884  -1.04766  -0.81017  -0.71288  -0.68667
 Alpha  occ. eigenvalues --   -0.62868  -0.57764  -0.57163  -0.52165  -0.47202
 Alpha  occ. eigenvalues --   -0.37931
 Alpha virt. eigenvalues --    0.15726   0.24590   0.27958   0.28741   0.31478
 Alpha virt. eigenvalues --    0.36778   0.49692   0.56496   0.87559   0.96657
 Alpha virt. eigenvalues --    0.99033   1.05202   1.08697   1.10790   1.23973

 Mulliken charges:
               1
     1  C    0.099690
     2  C   -0.496106
     3  H    0.260632
     4  H    0.232881
     5  H    0.252544
     6  O   -0.384190
     7  O   -0.367538
     8  H    0.402087
 Sum of Mulliken charges =   0.00000

 Dipole moment (field-independent basis, Debye):
    X=              3.0326    Y=             -0.3487    Z=              1.6634  Tot=              3.4764
 Quadrupole moment (field-independent basis, Debye-Ang):
   XX=            -25.3245   YY=            -22.1320   ZZ=            -21.6095
   XY=              1.0639   XZ=             -0.1449   YZ=             -0.6481

 Normal termination of Gaussian 09 at Fri Apr 12 17:21:01 2019.
