 Gaussian 09, Revision D.01,
 Gaussian 09:  AS64L-G09RevD.01 24-Apr-2013

 --------------------------------------------------------------------
 #p hf 3-21g scf=tight NoSymmetry guess=read opt=(tight,modredundant)
 --------------------------------------------------------------------

 -----------------------------------
 Geometry optimization at the 2D-PES
 -----------------------------------
 Symbolic Z-matrix:
 Charge =  0 Multiplicity = 1

 SCF Done:  E(RHF) =  -226.395079620     A.U. after   13 cycles
 SCF Done:  E(RHF) =  -226.395083245     A.U. after   11 cycles
 SCF Done:  E(RHF) =  -226.395085093     A.U. after   10 cycles
 SCF Done:  E(RHF) =  -226.395085140     A.U. after    8 cycles
 SCF Done:  E(RHF) =  -226.395085143     A.U. after    6 cycles
 Optimization completed.
    -- Stationary point found.

                          Input orientation:
 ---------------------------------------------------------------------
 Center     Atomic      Atomic             Coordinates (Angstroms)
 Number     Number       Type             X           Y           Z
 ---------------------------------------------------------------------
      1          6           0        0.727374    0.632884    0.047967
      2          6           0        1.369182   -0.505948    0.003577
      3          1           0        1.189992    1.593334    0.128973
      4          1           0        2.439517   -0.531288   -0.003961
      5          1           0        0.838073   -1.434397   -0.043581
      6          8           0       -0.674948    0.666745   -0.026516
      7          8           0       -1.124260    1.298314    1.226581
      8          1           0       -1.844847    1.852104    0.881290
 ---------------------------------------------------------------------

 Alpha  occ. eigenvalues --  -20.52790 -20.51886 -11.23815 -11.17321  -1.46679
 Alpha  occ. eigenvalues --   -1.23331  -1.02942  -0.79397  -0.69297  -0.68397
 Alpha  occ. eigenvalues --   -0.64886  -0.56719  -0.54962  -0.51443  -0.45736
 Alpha  occ. eigenvalues --   -0.37462
 Alpha virt. eigenvalues --    0.16459   0.26648   0.28577   0.31489   0.32404
 Alpha virt. eigenvalues --    0.36065   0.49316   0.57090   0.89554   0.97350
 Alpha virt. eigenvalues --    0.99651   1.07153   1.10717   1.12844   1.22552

 Mulliken charges:
               1
     1  C    0.151308
     2  C   -0.469594
     3  H    0.237076
     4  H    0.226314
     5  H    0.246694
     6  O   -0.414490
     7  O   -0.391085
     8  H    0.413776
 Sum of Mulliken charges =   0.00000

 Dipole moment (field-independent basis, Debye):
    X=              0.4366    Y=              1.1150    Z=             -0.4661  Tot=              1.2850
 Quadrupole moment (field-independent basis, Debye-Ang):
   XX=            -18.2965   YY=            -18.1579   ZZ=            -27.2736
   XY=             -3.2772   XZ=             -0.6118   YZ=              0.4694

 Normal termination of Gaussian 09 at Fri Apr 12 16:16:03 2019.
