 Gaussian 09, Revision D.01,
 Gaussian 09:  AS64L-G09RevD.01 24-Apr-2013

 --------------------------------------------------------------------
 #p hf 3-21g scf=tight NoSymmetry guess=read opt=(tight,modredundant)
 --------------------------------------------------------------------

 -----------------------------------
 Geometry optimization at the 2D-PES
 -----------------------------------
 Symbolic Z-matrix:
 Charge =  0 Multiplicity = 1

 SCF Done:  E(RHF) =  -226.393787937     A.U. after   13 cycles
 SCF Done:  E(RHF) =  -226.393795085     A.U. after   11 cycles
 SCF Done:  E(RHF) =  -226.393801663     A.U. after   10 cycles
 SCF Done:  E(RHF) =  -226.393801683     A.U. after    8 cycles
 SCF Done:  E(RHF) =  -226.393801686     A.U. after    7 cycles
 Optimization completed.
    -- Stationary point found.

                          Input orientation:
 ---------------------------------------------------------------------
 Center     Atomic      Atomic             Coordinates (Angstroms)
 Number     Number       Type             X           Y           Z
 ---------------------------------------------------------------------
      1          6           0        0.733347    0.638815    0.021173
      2          6           0        1.372088   -0.503049   -0.019488
      3          1           0        1.191828    1.601711    0.084788
      4          1           0        2.441133   -0.528262    0.028331
      5          1           0        0.846037   -1.433952   -0.081283
      6          8           0       -0.671700    0.672022    0.049644
      7          8           0       -1.088766    1.909262   -0.610963
      8          1           0       -1.172587    1.619119   -1.537146
 ---------------------------------------------------------------------

 Alpha  occ. eigenvalues --  -20.53777 -20.52879 -11.24538 -11.17355  -1.48009
 Alpha  occ. eigenvalues --   -1.23924  -1.03409  -0.80133  -0.72374  -0.65805
 Alpha  occ. eigenvalues --   -0.64390  -0.59747  -0.55359  -0.50201  -0.48324
 Alpha  occ. eigenvalues --   -0.37257
 Alpha virt. eigenvalues --    0.17354   0.23978   0.27451   0.31360   0.33159
 Alpha virt. eigenvalues --    0.35710   0.49197   0.57025   0.89596   0.96528
 Alpha virt. eigenvalues --    0.99486   1.05978   1.10208   1.11228   1.23998

 Mulliken charges:
               1
     1  C    0.132637
     2  C   -0.495683
     3  H    0.258047
     4  H    0.229397
     5  H    0.241947
     6  O   -0.396228
     7  O   -0.379166
     8  H    0.409047
 Sum of Mulliken charges =   0.00000

 Dipole moment (field-independent basis, Debye):
    X=              1.6353    Y=             -0.3708    Z=             -2.0417  Tot=              2.6420
 Quadrupole moment (field-independent basis, Debye-Ang):
   XX=            -22.7672   YY=            -23.9750   ZZ=            -21.2473
   XY=              1.6194   XZ=              2.8740   YZ=             -2.7151

 Normal termination of Gaussian 09 at Fri Apr 12 15:27:59 2019.
