 Gaussian 09, Revision D.01,
 Gaussian 09:  AS64L-G09RevD.01 24-Apr-2013

 --------------------------------------------------------------------
 #p hf 3-21g scf=tight NoSymmetry guess=read opt=(tight,modredundant)
 --------------------------------------------------------------------

 -----------------------------------
 Geometry optimization at the 2D-PES
 -----------------------------------
 Symbolic Z-matrix:
 Charge =  0 Multiplicity = 1

 SCF Done:  E(RHF) =  -226.392216969     A.U. after   13 cycles
 SCF Done:  E(RHF) =  -226.392225184     A.U. after   12 cycles
 SCF Done:  E(RHF) =  -226.392233029     A.U. after   10 cycles
 SCF Done:  E(RHF) =  -226.392233057     A.U. after    8 cycles
 SCF Done:  E(RHF) =  -226.392233060     A.U. after    7 cycles
 Optimization completed.
    -- Stationary point found.

                          Input orientation:
 ---------------------------------------------------------------------
 Center     Atomic      Atomic             Coordinates (Angstroms)
 Number     Number       Type             X           Y           Z
 ---------------------------------------------------------------------
      1          6           0        0.737262    0.637962    0.021141
      2          6           0        1.373084   -0.505454   -0.017818
      3          1           0        1.199990    1.598567    0.094752
      4          1           0        2.442352   -0.531383    0.022164
      5          1           0        0.845760   -1.435769   -0.076338
      6          8           0       -0.667726    0.677139    0.046987
      7          8           0       -1.087286    2.007283   -0.389296
      8          1           0       -1.012527    1.938579   -1.358722
 ---------------------------------------------------------------------

 Alpha  occ. eigenvalues --  -20.53961 -20.53143 -11.24715 -11.17280  -1.48256
 Alpha  occ. eigenvalues --   -1.24077  -1.03472  -0.80395  -0.72444  -0.65729
 Alpha  occ. eigenvalues --   -0.65210  -0.58815  -0.55115  -0.51503  -0.48410
 Alpha  occ. eigenvalues --   -0.36981
 Alpha virt. eigenvalues --    0.17517   0.23287   0.27209   0.31431   0.33272
 Alpha virt. eigenvalues --    0.35605   0.49264   0.57038   0.89515   0.96537
 Alpha virt. eigenvalues --    0.99352   1.05943   1.10094   1.10934   1.24729

 Mulliken charges:
               1
     1  C    0.127879
     2  C   -0.498580
     3  H    0.257668
     4  H    0.229531
     5  H    0.243378
     6  O   -0.392533
     7  O   -0.374229
     8  H    0.406886
 Sum of Mulliken charges =   0.00000

 Dipole moment (field-independent basis, Debye):
    X=              1.9316    Y=              0.1211    Z=             -2.0788  Tot=              2.8403
 Quadrupole moment (field-independent basis, Debye-Ang):
   XX=            -23.5020   YY=            -22.3255   ZZ=            -21.9185
   XY=              1.6586   XZ=              2.3921   YZ=             -3.8505

 Normal termination of Gaussian 09 at Fri Apr 12 15:31:30 2019.
