 Gaussian 09, Revision D.01,
 Gaussian 09:  AS64L-G09RevD.01 24-Apr-2013

 --------------------------------------------------------------------
 #p hf 3-21g scf=tight NoSymmetry guess=read opt=(tight,modredundant)
 --------------------------------------------------------------------

 -----------------------------------
 Geometry optimization at the 2D-PES
 -----------------------------------
 Symbolic Z-matrix:
 Charge =  0 Multiplicity = 1

 SCF Done:  E(RHF) =  -226.392722072     A.U. after   13 cycles
 SCF Done:  E(RHF) =  -226.392725825     A.U. after   11 cycles
 SCF Done:  E(RHF) =  -226.392727761     A.U. after   10 cycles
 SCF Done:  E(RHF) =  -226.392727809     A.U. after    8 cycles
 SCF Done:  E(RHF) =  -226.392727814     A.U. after    7 cycles
 Optimization completed.
    -- Stationary point found.

                          Input orientation:
 ---------------------------------------------------------------------
 Center     Atomic      Atomic             Coordinates (Angstroms)
 Number     Number       Type             X           Y           Z
 ---------------------------------------------------------------------
      1          6           0        0.725653    0.625643    0.043819
      2          6           0        1.372171   -0.510697    0.000631
      3          1           0        1.192480    1.583856    0.126831
      4          1           0        2.442779   -0.532573    0.010573
      5          1           0        0.849515   -1.443498   -0.063155
      6          8           0       -0.680908    0.667715   -0.021169
      7          8           0       -1.151436    0.834659    1.369213
      8          1           0       -1.918784    0.238073    1.346271
 ---------------------------------------------------------------------

 Alpha  occ. eigenvalues --  -20.52351 -20.51573 -11.23793 -11.17839  -1.46141
 Alpha  occ. eigenvalues --   -1.23005  -1.03273  -0.79288  -0.69938  -0.67582
 Alpha  occ. eigenvalues --   -0.63563  -0.58846  -0.55771  -0.49575  -0.44493
 Alpha  occ. eigenvalues --   -0.38603
 Alpha virt. eigenvalues --    0.15555   0.27170   0.28984   0.30979   0.31655
 Alpha virt. eigenvalues --    0.36322   0.49390   0.56715   0.88933   0.97397
 Alpha virt. eigenvalues --    0.98546   1.06976   1.10041   1.12762   1.23250

 Mulliken charges:
               1
     1  C    0.145199
     2  C   -0.458639
     3  H    0.240876
     4  H    0.228790
     5  H    0.238389
     6  O   -0.417078
     7  O   -0.391397
     8  H    0.413861
 Sum of Mulliken charges =   0.00000

 Dipole moment (field-independent basis, Debye):
    X=              0.4278    Y=             -1.4404    Z=              0.2571  Tot=              1.5245
 Quadrupole moment (field-independent basis, Debye-Ang):
   XX=            -17.7093   YY=            -23.4783   ZZ=            -25.7517
   XY=              2.4360   XZ=             -2.3193   YZ=             -1.3928

 Normal termination of Gaussian 09 at Fri Apr 12 16:28:08 2019.
