 Gaussian 09, Revision D.01,
 Gaussian 09:  AS64L-G09RevD.01 24-Apr-2013

 --------------------------------------------------------------------
 #p hf 3-21g scf=tight NoSymmetry guess=read opt=(tight,modredundant)
 --------------------------------------------------------------------

 -----------------------------------
 Geometry optimization at the 2D-PES
 -----------------------------------
 Symbolic Z-matrix:
 Charge =  0 Multiplicity = 1

 SCF Done:  E(RHF) =  -226.395533197     A.U. after   13 cycles
 SCF Done:  E(RHF) =  -226.395538031     A.U. after   11 cycles
 SCF Done:  E(RHF) =  -226.395542626     A.U. after   10 cycles
 SCF Done:  E(RHF) =  -226.395542679     A.U. after    7 cycles
 SCF Done:  E(RHF) =  -226.395542686     A.U. after    7 cycles
 Optimization completed.
    -- Stationary point found.

                          Input orientation:
 ---------------------------------------------------------------------
 Center     Atomic      Atomic             Coordinates (Angstroms)
 Number     Number       Type             X           Y           Z
 ---------------------------------------------------------------------
      1          6           0        0.736300    0.579085    0.063363
      2          6           0        1.413770   -0.535321   -0.035931
      3          1           0        1.178599    1.553990    0.084708
      4          1           0        2.483690   -0.509540   -0.057038
      5          1           0        0.927103   -1.486493   -0.064178
      6          8           0       -0.657454    0.708180    0.049318
      7          8           0       -1.262110   -0.501674    0.609868
      8          1           0       -1.868963   -0.097271    1.252568
 ---------------------------------------------------------------------

 Alpha  occ. eigenvalues --  -20.53467 -20.52521 -11.24059 -11.16202  -1.47512
 Alpha  occ. eigenvalues --   -1.23704  -1.02903  -0.79304  -0.71191  -0.66171
 Alpha  occ. eigenvalues --   -0.63063  -0.61503  -0.54312  -0.49681  -0.47892
 Alpha  occ. eigenvalues --   -0.36177
 Alpha virt. eigenvalues --    0.18357   0.24192   0.28931   0.30304   0.33648
 Alpha virt. eigenvalues --    0.37283   0.50068   0.58483   0.89034   0.97159
 Alpha virt. eigenvalues --    1.00907   1.07277   1.10668   1.13044   1.22635

 Mulliken charges:
               1
     1  C    0.142583
     2  C   -0.491748
     3  H    0.252406
     4  H    0.220414
     5  H    0.254852
     6  O   -0.415532
     7  O   -0.382725
     8  H    0.419751
 Sum of Mulliken charges =   0.00000

 Dipole moment (field-independent basis, Debye):
    X=              0.4013    Y=              0.5693    Z=              1.5475  Tot=              1.6971
 Quadrupole moment (field-independent basis, Debye-Ang):
   XX=            -18.9457   YY=            -22.8959   ZZ=            -22.9824
   XY=              0.5181   XZ=             -3.6680   YZ=              0.6405

 Normal termination of Gaussian 09 at Fri Apr 12 17:26:18 2019.
