 Gaussian 09, Revision D.01,
 Gaussian 09:  AS64L-G09RevD.01 24-Apr-2013

 --------------------------------------------------------------------
 #p hf 3-21g scf=tight NoSymmetry guess=read opt=(tight,modredundant)
 --------------------------------------------------------------------

 -----------------------------------
 Geometry optimization at the 2D-PES
 -----------------------------------
 Symbolic Z-matrix:
 Charge =  0 Multiplicity = 1

 SCF Done:  E(RHF) =  -226.385591112     A.U. after   13 cycles
 SCF Done:  E(RHF) =  -226.385606198     A.U. after   13 cycles
 SCF Done:  E(RHF) =  -226.385618244     A.U. after   10 cycles
 SCF Done:  E(RHF) =  -226.385618454     A.U. after    9 cycles
 SCF Done:  E(RHF) =  -226.385618469     A.U. after    8 cycles
 SCF Done:  E(RHF) =  -226.385618473     A.U. after    8 cycles
 Optimization completed.
    -- Stationary point found.

                          Input orientation:
 ---------------------------------------------------------------------
 Center     Atomic      Atomic             Coordinates (Angstroms)
 Number     Number       Type             X           Y           Z
 ---------------------------------------------------------------------
      1          6           0        0.733447    0.631900    0.035584
      2          6           0        1.381211   -0.506059   -0.014925
      3          1           0        1.198923    1.594628    0.067789
      4          1           0        2.451710   -0.529301    0.004089
      5          1           0        0.855175   -1.439577   -0.041856
      6          8           0       -0.677223    0.654547    0.042805
      7          8           0       -1.141308    0.963039   -1.324733
      8          1           0       -0.529899    0.450350   -1.886876
 ---------------------------------------------------------------------

 Alpha  occ. eigenvalues --  -20.52998 -20.52037 -11.25082 -11.19521  -1.46765
 Alpha  occ. eigenvalues --   -1.23365  -1.04893  -0.80942  -0.72456  -0.66544
 Alpha  occ. eigenvalues --   -0.62255  -0.59557  -0.56300  -0.51692  -0.44693
 Alpha  occ. eigenvalues --   -0.40047
 Alpha virt. eigenvalues --    0.14196   0.26000   0.27349   0.30031   0.30662
 Alpha virt. eigenvalues --    0.35889   0.48772   0.55203   0.87777   0.96586
 Alpha virt. eigenvalues --    0.97837   1.05086   1.08524   1.10777   1.23592

 Mulliken charges:
               1
     1  C    0.082675
     2  C   -0.459847
     3  H    0.247707
     4  H    0.236333
     5  H    0.251799
     6  O   -0.380152
     7  O   -0.375734
     8  H    0.397218
 Sum of Mulliken charges =   0.00000

 Dipole moment (field-independent basis, Debye):
    X=              3.3241    Y=             -1.2333    Z=             -1.2238  Tot=              3.7507
 Quadrupole moment (field-independent basis, Debye-Ang):
   XX=            -24.9513   YY=            -23.4836   ZZ=            -21.8271
   XY=              2.7952   XZ=             -0.8224   YZ=              0.9986

 Normal termination of Gaussian 09 at Fri Apr 12 15:08:47 2019.
