 Gaussian 09, Revision D.01,
 Gaussian 09:  AS64L-G09RevD.01 24-Apr-2013

 --------------------------------------------------------------------
 #p hf 3-21g scf=tight NoSymmetry guess=read opt=(tight,modredundant)
 --------------------------------------------------------------------

 -----------------------------------
 Geometry optimization at the 2D-PES
 -----------------------------------
 Symbolic Z-matrix:
 Charge =  0 Multiplicity = 1

 SCF Done:  E(RHF) =  -226.381352506     A.U. after   13 cycles
 SCF Done:  E(RHF) =  -226.381357653     A.U. after   12 cycles
 SCF Done:  E(RHF) =  -226.381362697     A.U. after   11 cycles
 SCF Done:  E(RHF) =  -226.381362749     A.U. after    9 cycles
 SCF Done:  E(RHF) =  -226.381362756     A.U. after    7 cycles
 Optimization completed.
    -- Stationary point found.

                          Input orientation:
 ---------------------------------------------------------------------
 Center     Atomic      Atomic             Coordinates (Angstroms)
 Number     Number       Type             X           Y           Z
 ---------------------------------------------------------------------
      1          6           0        0.751494    0.615587    0.036501
      2          6           0        1.397876   -0.522315   -0.015464
      3          1           0        1.225769    1.575108    0.077024
      4          1           0        2.468752   -0.545290   -0.013588
      5          1           0        0.870144   -1.453278   -0.069144
      6          8           0       -0.659126    0.677801    0.002416
      7          8           0       -1.218838    0.377068    1.338665
      8          1           0       -0.474976    0.534261    1.949670
 ---------------------------------------------------------------------

 Alpha  occ. eigenvalues --  -20.52647 -20.51837 -11.24914 -11.19511  -1.46217
 Alpha  occ. eigenvalues --   -1.23215  -1.04870  -0.81223  -0.71050  -0.68178
 Alpha  occ. eigenvalues --   -0.59561  -0.58937  -0.58070  -0.51927  -0.44136
 Alpha  occ. eigenvalues --   -0.39774
 Alpha virt. eigenvalues --    0.13493   0.26951   0.27526   0.29020   0.30830
 Alpha virt. eigenvalues --    0.36333   0.49467   0.55175   0.87168   0.96777
 Alpha virt. eigenvalues --    0.97415   1.05201   1.08630   1.10950   1.24210

 Mulliken charges:
               1
     1  C    0.060170
     2  C   -0.443219
     3  H    0.243496
     4  H    0.234451
     5  H    0.260651
     6  O   -0.378838
     7  O   -0.373781
     8  H    0.397070
 Sum of Mulliken charges =   0.00000

 Dipole moment (field-independent basis, Debye):
    X=              3.6317    Y=             -0.1246    Z=              1.3659  Tot=              3.8820
 Quadrupole moment (field-independent basis, Debye-Ang):
   XX=            -25.2812   YY=            -21.9008   ZZ=            -21.3337
   XY=              1.4104   XZ=              1.3966   YZ=              1.4292

 Normal termination of Gaussian 09 at Fri Apr 12 16:48:43 2019.
