 Gaussian 09, Revision D.01,
 Gaussian 09:  AS64L-G09RevD.01 24-Apr-2013

 --------------------------------------------------------------------
 #p hf 3-21g scf=tight NoSymmetry guess=read opt=(tight,modredundant)
 --------------------------------------------------------------------

 -----------------------------------
 Geometry optimization at the 2D-PES
 -----------------------------------
 Symbolic Z-matrix:
 Charge =  0 Multiplicity = 1

 SCF Done:  E(RHF) =  -226.388196779     A.U. after   12 cycles
 SCF Done:  E(RHF) =  -226.388205978     A.U. after   12 cycles
 SCF Done:  E(RHF) =  -226.388214110     A.U. after   11 cycles
 SCF Done:  E(RHF) =  -226.388214178     A.U. after    9 cycles
 SCF Done:  E(RHF) =  -226.388214187     A.U. after    8 cycles
 Optimization completed.
    -- Stationary point found.

                          Input orientation:
 ---------------------------------------------------------------------
 Center     Atomic      Atomic             Coordinates (Angstroms)
 Number     Number       Type             X           Y           Z
 ---------------------------------------------------------------------
      1          6           0        0.747227    0.598114    0.054684
      2          6           0        1.409147   -0.528132   -0.025475
      3          1           0        1.201947    1.567019    0.074696
      4          1           0        2.479735   -0.529521   -0.034226
      5          1           0        0.898803   -1.468643   -0.060970
      6          8           0       -0.659650    0.697759    0.029552
      7          8           0       -1.246737   -0.236947    0.995858
      8          1           0       -0.865019    0.064168    1.841262
 ---------------------------------------------------------------------

 Alpha  occ. eigenvalues --  -20.53229 -20.52491 -11.24609 -11.18093  -1.47247
 Alpha  occ. eigenvalues --   -1.23365  -1.04186  -0.80619  -0.69860  -0.69084
 Alpha  occ. eigenvalues --   -0.62100  -0.58831  -0.56892  -0.50301  -0.46788
 Alpha  occ. eigenvalues --   -0.38041
 Alpha virt. eigenvalues --    0.15330   0.25745   0.28280   0.29055   0.31839
 Alpha virt. eigenvalues --    0.36860   0.49675   0.56528   0.87708   0.96648
 Alpha virt. eigenvalues --    0.98763   1.06064   1.09389   1.10668   1.24484

 Mulliken charges:
               1
     1  C    0.089254
     2  C   -0.469157
     3  H    0.251007
     4  H    0.229122
     5  H    0.257906
     6  O   -0.387525
     7  O   -0.372191
     8  H    0.401584
 Sum of Mulliken charges =   0.00000

 Dipole moment (field-independent basis, Debye):
    X=              2.7007    Y=              0.2605    Z=              1.8887  Tot=              3.3059
 Quadrupole moment (field-independent basis, Debye-Ang):
   XX=            -24.6391   YY=            -22.3998   ZZ=            -20.4236
   XY=              0.5270   XZ=             -0.8378   YZ=              1.0329

 Normal termination of Gaussian 09 at Fri Apr 12 17:07:30 2019.
