 Gaussian 09, Revision D.01,
 Gaussian 09:  AS64L-G09RevD.01 24-Apr-2013

 --------------------------------------------------------------------
 #p hf 3-21g scf=tight NoSymmetry guess=read opt=(tight,modredundant)
 --------------------------------------------------------------------

 -----------------------------------
 Geometry optimization at the 2D-PES
 -----------------------------------
 Symbolic Z-matrix:
 Charge =  0 Multiplicity = 1

 SCF Done:  E(RHF) =  -226.391174140     A.U. after   12 cycles
 SCF Done:  E(RHF) =  -226.391180884     A.U. after   11 cycles
 SCF Done:  E(RHF) =  -226.391184770     A.U. after   10 cycles
 SCF Done:  E(RHF) =  -226.391184824     A.U. after    9 cycles
 SCF Done:  E(RHF) =  -226.391184829     A.U. after    6 cycles
 Optimization completed.
    -- Stationary point found.

                          Input orientation:
 ---------------------------------------------------------------------
 Center     Atomic      Atomic             Coordinates (Angstroms)
 Number     Number       Type             X           Y           Z
 ---------------------------------------------------------------------
      1          6           0        0.729467    0.615449    0.046523
      2          6           0        1.382241   -0.516561   -0.009328
      3          1           0        1.198331    1.574170    0.115350
      4          1           0        2.452910   -0.531215    0.001799
      5          1           0        0.869597   -1.455494   -0.066958
      6          8           0       -0.678769    0.677248   -0.004496
      7          8           0       -1.185621    0.353739    1.342373
      8          1           0       -1.844024   -0.322280    1.108406
 ---------------------------------------------------------------------

 Alpha  occ. eigenvalues --  -20.52304 -20.51717 -11.23827 -11.17919  -1.46184
 Alpha  occ. eigenvalues --   -1.22962  -1.03450  -0.79222  -0.69890  -0.67929
 Alpha  occ. eigenvalues --   -0.64203  -0.58091  -0.55491  -0.49577  -0.45206
 Alpha  occ. eigenvalues --   -0.38361
 Alpha virt. eigenvalues --    0.15201   0.26628   0.29298   0.30628   0.31524
 Alpha virt. eigenvalues --    0.36682   0.49632   0.56599   0.88656   0.97287
 Alpha virt. eigenvalues --    0.98374   1.06652   1.09788   1.12717   1.23464

 Mulliken charges:
               1
     1  C    0.140332
     2  C   -0.455118
     3  H    0.241728
     4  H    0.229746
     5  H    0.233910
     6  O   -0.416806
     7  O   -0.385317
     8  H    0.411525
 Sum of Mulliken charges =   0.00000

 Dipole moment (field-independent basis, Debye):
    X=              0.6636    Y=             -1.6846    Z=             -0.1736  Tot=              1.8189
 Quadrupole moment (field-independent basis, Debye-Ang):
   XX=            -18.4957   YY=            -22.2070   ZZ=            -26.8359
   XY=              3.6053   XZ=             -1.0362   YZ=             -1.4027

 Normal termination of Gaussian 09 at Fri Apr 12 16:44:00 2019.
