 Gaussian 09, Revision D.01,
 Gaussian 09:  AS64L-G09RevD.01 24-Apr-2013

 --------------------------------------------------------------------
 #p hf 3-21g scf=tight NoSymmetry guess=read opt=(tight,modredundant)
 --------------------------------------------------------------------

 -----------------------------------
 Geometry optimization at the 2D-PES
 -----------------------------------
 Symbolic Z-matrix:
 Charge =  0 Multiplicity = 1

 SCF Done:  E(RHF) =  -226.392404327     A.U. after   13 cycles
 SCF Done:  E(RHF) =  -226.392410759     A.U. after   11 cycles
 SCF Done:  E(RHF) =  -226.392415038     A.U. after   10 cycles
 SCF Done:  E(RHF) =  -226.392415085     A.U. after    8 cycles
 SCF Done:  E(RHF) =  -226.392415091     A.U. after    7 cycles
 SCF Done:  E(RHF) =  -226.392415092     A.U. after    6 cycles
 Optimization completed.
    -- Stationary point found.

                          Input orientation:
 ---------------------------------------------------------------------
 Center     Atomic      Atomic             Coordinates (Angstroms)
 Number     Number       Type             X           Y           Z
 ---------------------------------------------------------------------
      1          6           0        0.738383    0.595991    0.061087
      2          6           0        1.401003   -0.527942   -0.025337
      3          1           0        1.196647    1.563446    0.087216
      4          1           0        2.471664   -0.524526   -0.035783
      5          1           0        0.896706   -1.471426   -0.052758
      6          8           0       -0.664464    0.701552    0.029741
      7          8           0       -1.236747   -0.248160    0.991934
      8          1           0       -1.713034    0.367454    1.575189
 ---------------------------------------------------------------------

 Alpha  occ. eigenvalues --  -20.52805 -20.52123 -11.23824 -11.16927  -1.46810
 Alpha  occ. eigenvalues --   -1.23201  -1.03084  -0.79363  -0.70650  -0.66262
 Alpha  occ. eigenvalues --   -0.62641  -0.61297  -0.54966  -0.48841  -0.46739
 Alpha  occ. eigenvalues --   -0.37107
 Alpha virt. eigenvalues --    0.16619   0.25437   0.29221   0.30331   0.32808
 Alpha virt. eigenvalues --    0.37109   0.50041   0.57498   0.88724   0.97150
 Alpha virt. eigenvalues --    0.99848   1.06857   1.10418   1.12853   1.23003

 Mulliken charges:
               1
     1  C    0.128902
     2  C   -0.468436
     3  H    0.244273
     4  H    0.223224
     5  H    0.254074
     6  O   -0.412993
     7  O   -0.383380
     8  H    0.414336
 Sum of Mulliken charges =   0.00000

 Dipole moment (field-independent basis, Debye):
    X=              0.8750    Y=              0.9315    Z=              1.4951  Tot=              1.9669
 Quadrupole moment (field-independent basis, Debye-Ang):
   XX=            -19.9514   YY=            -22.1569   ZZ=            -22.2735
   XY=             -0.7761   XZ=             -3.4120   YZ=              2.1356

 Normal termination of Gaussian 09 at Fri Apr 12 17:08:54 2019.
