 Gaussian 09, Revision D.01,
 Gaussian 09:  AS64L-G09RevD.01 24-Apr-2013

 --------------------------------------------------------------------
 #p hf 3-21g scf=tight NoSymmetry guess=read opt=(tight,modredundant)
 --------------------------------------------------------------------

 -----------------------------------
 Geometry optimization at the 2D-PES
 -----------------------------------
 Symbolic Z-matrix:
 Charge =  0 Multiplicity = 1

 SCF Done:  E(RHF) =  -226.386902022     A.U. after   13 cycles
 SCF Done:  E(RHF) =  -226.386907491     A.U. after   12 cycles
 SCF Done:  E(RHF) =  -226.386914687     A.U. after   10 cycles
 SCF Done:  E(RHF) =  -226.386914702     A.U. after    8 cycles
 SCF Done:  E(RHF) =  -226.386914703     A.U. after    7 cycles
 Optimization completed.
    -- Stationary point found.

                          Input orientation:
 ---------------------------------------------------------------------
 Center     Atomic      Atomic             Coordinates (Angstroms)
 Number     Number       Type             X           Y           Z
 ---------------------------------------------------------------------
      1          6           0        0.747454    0.605536    0.050795
      2          6           0        1.403643   -0.524104   -0.022056
      3          1           0        1.209338    1.571207    0.077963
      4          1           0        2.474467   -0.533910   -0.026269
      5          1           0        0.886544   -1.461175   -0.059493
      6          8           0       -0.662935    0.692160    0.019860
      7          8           0       -1.231734   -0.060823    1.146041
      8          1           0       -0.845353    0.387583    1.920896
 ---------------------------------------------------------------------

 Alpha  occ. eigenvalues --  -20.52901 -20.52229 -11.24415 -11.18353  -1.46855
 Alpha  occ. eigenvalues --   -1.23136  -1.04156  -0.80612  -0.69672  -0.68999
 Alpha  occ. eigenvalues --   -0.61300  -0.59352  -0.57036  -0.49826  -0.46136
 Alpha  occ. eigenvalues --   -0.38478
 Alpha virt. eigenvalues --    0.14757   0.26375   0.28283   0.29189   0.31653
 Alpha virt. eigenvalues --    0.36743   0.49669   0.56200   0.87645   0.96648
 Alpha virt. eigenvalues --    0.98546   1.06157   1.09397   1.10609   1.24596

 Mulliken charges:
               1
     1  C    0.082627
     2  C   -0.455059
     3  H    0.245406
     4  H    0.229439
     5  H    0.258958
     6  O   -0.387557
     7  O   -0.373625
     8  H    0.399811
 Sum of Mulliken charges =   0.00000

 Dipole moment (field-independent basis, Debye):
    X=              2.7936    Y=              0.4987    Z=              1.7635  Tot=              3.3410
 Quadrupole moment (field-independent basis, Debye-Ang):
   XX=            -24.5659   YY=            -21.9535   ZZ=            -20.4859
   XY=              0.3012   XZ=             -0.5353   YZ=              2.0566

 Normal termination of Gaussian 09 at Fri Apr 12 17:03:24 2019.
