 Gaussian 09, Revision D.01,
 Gaussian 09:  AS64L-G09RevD.01 24-Apr-2013

 --------------------------------------------------------------------
 #p hf 3-21g scf=tight NoSymmetry guess=read opt=(tight,modredundant)
 --------------------------------------------------------------------

 -----------------------------------
 Geometry optimization at the 2D-PES
 -----------------------------------
 Symbolic Z-matrix:
 Charge =  0 Multiplicity = 1

 SCF Done:  E(RHF) =  -226.395841377     A.U. after   13 cycles
 SCF Done:  E(RHF) =  -226.395842257     A.U. after   11 cycles
 SCF Done:  E(RHF) =  -226.395843150     A.U. after   10 cycles
 SCF Done:  E(RHF) =  -226.395843166     A.U. after    7 cycles
 SCF Done:  E(RHF) =  -226.395843167     A.U. after    6 cycles
 Optimization completed.
    -- Stationary point found.

                          Input orientation:
 ---------------------------------------------------------------------
 Center     Atomic      Atomic             Coordinates (Angstroms)
 Number     Number       Type             X           Y           Z
 ---------------------------------------------------------------------
      1          6           0        0.719827    0.634165    0.040682
      2          6           0        1.366867   -0.503211   -0.011692
      3          1           0        1.174351    1.598909    0.094779
      4          1           0        2.436817   -0.513631   -0.001368
      5          1           0        0.852472   -1.440961   -0.063388
      6          8           0       -0.677827    0.669769    0.027648
      7          8           0       -1.054259    2.085426    0.097404
      8          1           0       -1.961707    2.024045   -0.243773
 ---------------------------------------------------------------------

 Alpha  occ. eigenvalues --  -20.53656 -20.52834 -11.24295 -11.16093  -1.47825
 Alpha  occ. eigenvalues --   -1.24166  -1.02525  -0.79852  -0.70661  -0.67104
 Alpha  occ. eigenvalues --   -0.64060  -0.59600  -0.55245  -0.50610  -0.48758
 Alpha  occ. eigenvalues --   -0.35435
 Alpha virt. eigenvalues --    0.19801   0.22398   0.27566   0.32256   0.34238
 Alpha virt. eigenvalues --    0.36064   0.50229   0.57898   0.90432   0.97377
 Alpha virt. eigenvalues --    1.00320   1.07006   1.11053   1.12452   1.22959

 Mulliken charges:
               1
     1  C    0.172780
     2  C   -0.514347
     3  H    0.266268
     4  H    0.225594
     5  H    0.235486
     6  O   -0.421549
     7  O   -0.388093
     8  H    0.423862
 Sum of Mulliken charges =   0.00000

 Dipole moment (field-independent basis, Debye):
    X=             -0.2593    Y=              0.4064    Z=             -0.7045  Tot=              0.8536
 Quadrupole moment (field-independent basis, Debye-Ang):
   XX=            -17.0490   YY=            -22.0153   ZZ=            -25.6852
   XY=             -2.6196   XZ=              1.4920   YZ=             -1.3345

 Normal termination of Gaussian 09 at Fri Apr 12 15:38:34 2019.
