 Gaussian 09, Revision D.01,
 Gaussian 09:  AS64L-G09RevD.01 24-Apr-2013

 --------------------------------------------------------------------
 #p hf 3-21g scf=tight NoSymmetry guess=read opt=(tight,modredundant)
 --------------------------------------------------------------------

 -----------------------------------
 Geometry optimization at the 2D-PES
 -----------------------------------
 Symbolic Z-matrix:
 Charge =  0 Multiplicity = 1

 SCF Done:  E(RHF) =  -226.383622376     A.U. after   13 cycles
 SCF Done:  E(RHF) =  -226.383630493     A.U. after   12 cycles
 SCF Done:  E(RHF) =  -226.383637354     A.U. after   11 cycles
 SCF Done:  E(RHF) =  -226.383637431     A.U. after    9 cycles
 SCF Done:  E(RHF) =  -226.383637443     A.U. after    8 cycles
 Optimization completed.
    -- Stationary point found.

                          Input orientation:
 ---------------------------------------------------------------------
 Center     Atomic      Atomic             Coordinates (Angstroms)
 Number     Number       Type             X           Y           Z
 ---------------------------------------------------------------------
      1          6           0        0.749487    0.610916    0.042511
      2          6           0        1.399140   -0.523964   -0.017697
      3          1           0        1.219288    1.572704    0.077672
      4          1           0        2.470004   -0.542740   -0.015022
      5          1           0        0.874918   -1.457052   -0.065185
      6          8           0       -0.661502    0.686539    0.008096
      7          8           0       -1.227260    0.151867    1.260576
      8          1           0       -0.620993    0.487675    1.946896
 ---------------------------------------------------------------------

 Alpha  occ. eigenvalues --  -20.52736 -20.52015 -11.24667 -11.19024  -1.46495
 Alpha  occ. eigenvalues --   -1.23140  -1.04564  -0.80983  -0.70371  -0.68619
 Alpha  occ. eigenvalues --   -0.60265  -0.58909  -0.57948  -0.50895  -0.44993
 Alpha  occ. eigenvalues --   -0.39187
 Alpha virt. eigenvalues --    0.13949   0.26838   0.27825   0.29031   0.31166
 Alpha virt. eigenvalues --    0.36536   0.49615   0.55570   0.87293   0.96733
 Alpha virt. eigenvalues --    0.97831   1.05737   1.09012   1.10599   1.24549

 Mulliken charges:
               1
     1  C    0.068040
     2  C   -0.446833
     3  H    0.244044
     4  H    0.232265
     5  H    0.260329
     6  O   -0.382067
     7  O   -0.373027
     8  H    0.397250
 Sum of Mulliken charges =   0.00000

 Dipole moment (field-independent basis, Debye):
    X=              3.3093    Y=              0.2334    Z=              1.5492  Tot=              3.6614
 Quadrupole moment (field-independent basis, Debye-Ang):
   XX=            -25.0855   YY=            -21.7853   ZZ=            -20.9090
   XY=              0.8128   XZ=              0.6395   YZ=              1.9186

 Normal termination of Gaussian 09 at Fri Apr 12 16:50:28 2019.
