 Gaussian 09, Revision D.01,
 Gaussian 09:  AS64L-G09RevD.01 24-Apr-2013

 --------------------------------------------------------------------
 #p hf 3-21g scf=tight NoSymmetry guess=read opt=(tight,modredundant)
 --------------------------------------------------------------------

 -----------------------------------
 Geometry optimization at the 2D-PES
 -----------------------------------
 Symbolic Z-matrix:
 Charge =  0 Multiplicity = 1

 SCF Done:  E(RHF) =  -226.392137026     A.U. after   13 cycles
 SCF Done:  E(RHF) =  -226.392139478     A.U. after   11 cycles
 SCF Done:  E(RHF) =  -226.392140544     A.U. after   10 cycles
 SCF Done:  E(RHF) =  -226.392140579     A.U. after    8 cycles
 SCF Done:  E(RHF) =  -226.392140581     A.U. after    6 cycles
 Optimization completed.
    -- Stationary point found.

                          Input orientation:
 ---------------------------------------------------------------------
 Center     Atomic      Atomic             Coordinates (Angstroms)
 Number     Number       Type             X           Y           Z
 ---------------------------------------------------------------------
      1          6           0        0.726930    0.621642    0.043127
      2          6           0        1.373341   -0.514366   -0.003068
      3          1           0        1.197030    1.578976    0.121532
      4          1           0        2.443942   -0.536310    0.010584
      5          1           0        0.850914   -1.447501   -0.062745
      6          8           0       -0.679780    0.672818   -0.018089
      7          8           0       -1.164011    0.593689    1.376394
      8          1           0       -2.014957    0.151431    1.215987
 ---------------------------------------------------------------------

 Alpha  occ. eigenvalues --  -20.52156 -20.51471 -11.23647 -11.17800  -1.45912
 Alpha  occ. eigenvalues --   -1.22892  -1.03209  -0.79120  -0.69224  -0.68251
 Alpha  occ. eigenvalues --   -0.63774  -0.58037  -0.55545  -0.50223  -0.44028
 Alpha  occ. eigenvalues --   -0.38495
 Alpha virt. eigenvalues --    0.15342   0.27530   0.29244   0.30685   0.31664
 Alpha virt. eigenvalues --    0.36586   0.49542   0.56755   0.88898   0.97493
 Alpha virt. eigenvalues --    0.98809   1.06891   1.10077   1.12637   1.23495

 Mulliken charges:
               1
     1  C    0.142102
     2  C   -0.451801
     3  H    0.238972
     4  H    0.228319
     5  H    0.239708
     6  O   -0.420206
     7  O   -0.390865
     8  H    0.413771
 Sum of Mulliken charges =   0.00000

 Dipole moment (field-independent basis, Debye):
    X=              0.2732    Y=             -1.1966    Z=             -0.0216  Tot=              1.2276
 Quadrupole moment (field-independent basis, Debye-Ang):
   XX=            -16.8816   YY=            -22.8989   ZZ=            -26.5057
   XY=              2.1538   XZ=             -1.9233   YZ=             -0.9755

 Normal termination of Gaussian 09 at Fri Apr 12 16:40:49 2019.
