 Gaussian 09, Revision D.01,
 Gaussian 09:  AS64L-G09RevD.01 24-Apr-2013

 --------------------------------------------------------------------
 #p hf 3-21g scf=tight NoSymmetry guess=read opt=(tight,modredundant)
 --------------------------------------------------------------------

 -----------------------------------
 Geometry optimization at the 2D-PES
 -----------------------------------
 Symbolic Z-matrix:
 Charge =  0 Multiplicity = 1

 SCF Done:  E(RHF) =  -226.395744762     A.U. after   13 cycles
 SCF Done:  E(RHF) =  -226.395746334     A.U. after   11 cycles
 SCF Done:  E(RHF) =  -226.395747573     A.U. after   10 cycles
 SCF Done:  E(RHF) =  -226.395747590     A.U. after    7 cycles
 SCF Done:  E(RHF) =  -226.395747591     A.U. after    6 cycles
 Optimization completed.
    -- Stationary point found.

                          Input orientation:
 ---------------------------------------------------------------------
 Center     Atomic      Atomic             Coordinates (Angstroms)
 Number     Number       Type             X           Y           Z
 ---------------------------------------------------------------------
      1          6           0        0.724768    0.634248    0.054590
      2          6           0        1.368050   -0.504471    0.003529
      3          1           0        1.183154    1.597305    0.118689
      4          1           0        2.438093   -0.523758   -0.015010
      5          1           0        0.843749   -1.437134   -0.039926
      6          8           0       -0.673017    0.670668   -0.020251
      7          8           0       -1.093583    1.695136    0.950535
      8          1           0       -2.018821    1.423922    1.071667
 ---------------------------------------------------------------------

 Alpha  occ. eigenvalues --  -20.53148 -20.52147 -11.24077 -11.16869  -1.47057
 Alpha  occ. eigenvalues --   -1.23713  -1.02790  -0.79615  -0.70263  -0.67361
 Alpha  occ. eigenvalues --   -0.63168  -0.60005  -0.55627  -0.50301  -0.46600
 Alpha  occ. eigenvalues --   -0.36687
 Alpha virt. eigenvalues --    0.17588   0.25142   0.28160   0.31799   0.33131
 Alpha virt. eigenvalues --    0.36070   0.49802   0.57354   0.89960   0.97375
 Alpha virt. eigenvalues --    0.99810   1.07194   1.10713   1.12393   1.23274

 Mulliken charges:
               1
     1  C    0.166939
     2  C   -0.492969
     3  H    0.254077
     4  H    0.226615
     5  H    0.238487
     6  O   -0.419757
     7  O   -0.394096
     8  H    0.420703
 Sum of Mulliken charges =   0.00000

 Dipole moment (field-independent basis, Debye):
    X=             -0.1360    Y=             -0.3811    Z=              0.5083  Tot=              0.6497
 Quadrupole moment (field-independent basis, Debye-Ang):
   XX=            -16.5961   YY=            -23.7093   ZZ=            -25.1596
   XY=             -0.9183   XZ=             -2.7205   YZ=              0.2228

 Normal termination of Gaussian 09 at Fri Apr 12 16:00:43 2019.
