 Gaussian 09, Revision D.01,
 Gaussian 09:  AS64L-G09RevD.01 24-Apr-2013

 --------------------------------------------------------------------
 #p hf 3-21g scf=tight NoSymmetry guess=read opt=(tight,modredundant)
 --------------------------------------------------------------------

 -----------------------------------
 Geometry optimization at the 2D-PES
 -----------------------------------
 Symbolic Z-matrix:
 Charge =  0 Multiplicity = 1

 SCF Done:  E(RHF) =  -226.381997170     A.U. after   13 cycles
 SCF Done:  E(RHF) =  -226.382006401     A.U. after   12 cycles
 SCF Done:  E(RHF) =  -226.382012279     A.U. after   10 cycles
 SCF Done:  E(RHF) =  -226.382012429     A.U. after    9 cycles
 SCF Done:  E(RHF) =  -226.382012433     A.U. after    7 cycles
 SCF Done:  E(RHF) =  -226.382012434     A.U. after    6 cycles
 Optimization completed.
    -- Stationary point found.

                          Input orientation:
 ---------------------------------------------------------------------
 Center     Atomic      Atomic             Coordinates (Angstroms)
 Number     Number       Type             X           Y           Z
 ---------------------------------------------------------------------
      1          6           0        0.738014    0.624524    0.036024
      2          6           0        1.393934   -0.510159   -0.004648
      3          1           0        1.204644    1.586516    0.079309
      4          1           0        2.464555   -0.524371    0.012143
      5          1           0        0.877689   -1.449789   -0.027134
      6          8           0       -0.672035    0.664254    0.029030
      7          8           0       -1.179302    0.491412   -1.350204
      8          1           0       -0.431349    0.078429   -1.821474
 ---------------------------------------------------------------------

 Alpha  occ. eigenvalues --  -20.52792 -20.51967 -11.25395 -11.19764  -1.46454
 Alpha  occ. eigenvalues --   -1.23386  -1.05256  -0.81120  -0.72327  -0.67262
 Alpha  occ. eigenvalues --   -0.61111  -0.59565  -0.56365  -0.52686  -0.44418
 Alpha  occ. eigenvalues --   -0.39956
 Alpha virt. eigenvalues --    0.13660   0.25650   0.27588   0.29601   0.30220
 Alpha virt. eigenvalues --    0.36310   0.49420   0.54770   0.87402   0.96247
 Alpha virt. eigenvalues --    0.98408   1.04423   1.08107   1.10972   1.23135

 Mulliken charges:
               1
     1  C    0.081353
     2  C   -0.465478
     3  H    0.249534
     4  H    0.238362
     5  H    0.252754
     6  O   -0.381831
     7  O   -0.372284
     8  H    0.397589
 Sum of Mulliken charges =   0.00000

 Dipole moment (field-independent basis, Debye):
    X=              3.6167    Y=             -1.0770    Z=             -1.0410  Tot=              3.9146
 Quadrupole moment (field-independent basis, Debye-Ang):
   XX=            -25.2322   YY=            -22.5413   ZZ=            -22.4476
   XY=              2.1930   XZ=             -1.4217   YZ=              1.1607

 Normal termination of Gaussian 09 at Fri Apr 12 15:03:23 2019.
