 Gaussian 09, Revision D.01,
 Gaussian 09:  AS64L-G09RevD.01 24-Apr-2013

 --------------------------------------------------------------------
 #p hf 3-21g scf=tight NoSymmetry guess=read opt=(tight,modredundant)
 --------------------------------------------------------------------

 -----------------------------------
 Geometry optimization at the 2D-PES
 -----------------------------------
 Symbolic Z-matrix:
 Charge =  0 Multiplicity = 1

 SCF Done:  E(RHF) =  -226.391651877     A.U. after   13 cycles
 SCF Done:  E(RHF) =  -226.391664726     A.U. after   12 cycles
 SCF Done:  E(RHF) =  -226.391673715     A.U. after   10 cycles
 SCF Done:  E(RHF) =  -226.391673789     A.U. after    8 cycles
 SCF Done:  E(RHF) =  -226.391673796     A.U. after    8 cycles
 SCF Done:  E(RHF) =  -226.391673797     A.U. after    5 cycles
 Optimization completed.
    -- Stationary point found.

                          Input orientation:
 ---------------------------------------------------------------------
 Center     Atomic      Atomic             Coordinates (Angstroms)
 Number     Number       Type             X           Y           Z
 ---------------------------------------------------------------------
      1          6           0        0.737714    0.590515    0.065201
      2          6           0        1.409503   -0.528124   -0.028960
      3          1           0        1.192801    1.558372    0.092199
      4          1           0        2.479548   -0.514303   -0.048319
      5          1           0        0.926246   -1.483169   -0.044990
      6          8           0       -0.663233    0.701486    0.036074
      7          8           0       -1.253634   -0.245494    0.985467
      8          1           0       -1.662069   -0.884414    0.376290
 ---------------------------------------------------------------------

 Alpha  occ. eigenvalues --  -20.53165 -20.52581 -11.24332 -11.17416  -1.47289
 Alpha  occ. eigenvalues --   -1.23576  -1.03652  -0.79450  -0.70365  -0.68775
 Alpha  occ. eigenvalues --   -0.65158  -0.57260  -0.54645  -0.50777  -0.47746
 Alpha  occ. eigenvalues --   -0.37213
 Alpha virt. eigenvalues --    0.16228   0.24567   0.29072   0.29662   0.32707
 Alpha virt. eigenvalues --    0.37044   0.49957   0.57168   0.88568   0.96803
 Alpha virt. eigenvalues --    0.99046   1.06582   1.09747   1.12227   1.23848

 Mulliken charges:
               1
     1  C    0.145236
     2  C   -0.478599
     3  H    0.253394
     4  H    0.229441
     5  H    0.224918
     6  O   -0.411338
     7  O   -0.374415
     8  H    0.411363
 Sum of Mulliken charges =   0.00000

 Dipole moment (field-independent basis, Debye):
    X=              0.9759    Y=             -1.5534    Z=             -1.0118  Tot=              2.0950
 Quadrupole moment (field-independent basis, Debye-Ang):
   XX=            -20.3516   YY=            -20.7314   ZZ=            -27.4048
   XY=              4.1622   XZ=              1.3221   YZ=              0.1452

 Normal termination of Gaussian 09 at Fri Apr 12 17:12:09 2019.
