 Gaussian 09, Revision D.01,
 Gaussian 09:  AS64L-G09RevD.01 24-Apr-2013

 --------------------------------------------------------------------
 #p hf 3-21g scf=tight NoSymmetry guess=read opt=(tight,modredundant)
 --------------------------------------------------------------------

 -----------------------------------
 Geometry optimization at the 2D-PES
 -----------------------------------
 Symbolic Z-matrix:
 Charge =  0 Multiplicity = 1

 SCF Done:  E(RHF) =  -226.381309891     A.U. after   13 cycles
 SCF Done:  E(RHF) =  -226.381322651     A.U. after   10 cycles
 SCF Done:  E(RHF) =  -226.381325633     A.U. after    9 cycles
 SCF Done:  E(RHF) =  -226.381325803     A.U. after    8 cycles
 SCF Done:  E(RHF) =  -226.381325828     A.U. after    7 cycles
 Optimization completed.
    -- Stationary point found.

                          Input orientation:
 ---------------------------------------------------------------------
 Center     Atomic      Atomic             Coordinates (Angstroms)
 Number     Number       Type             X           Y           Z
 ---------------------------------------------------------------------
      1          6           0        0.739737    0.599994    0.022402
      2          6           0        1.423063   -0.520101    0.007312
      3          1           0        1.189056    1.568720    0.086182
      4          1           0        2.492523   -0.499756    0.035135
      5          1           0        0.949231   -1.482573   -0.003406
      6          8           0       -0.659662    0.684563   -0.002966
      7          8           0       -1.258566   -0.126322   -1.076968
      8          1           0       -0.518009   -0.661978   -1.415997
 ---------------------------------------------------------------------

 Alpha  occ. eigenvalues --  -20.53505 -20.52613 -11.26096 -11.19194  -1.47305
 Alpha  occ. eigenvalues --   -1.24080  -1.05488  -0.81225  -0.72885  -0.67860
 Alpha  occ. eigenvalues --   -0.62165  -0.59622  -0.55466  -0.53666  -0.46696
 Alpha  occ. eigenvalues --   -0.38424
 Alpha virt. eigenvalues --    0.14673   0.23658   0.27578   0.28895   0.31839
 Alpha virt. eigenvalues --    0.36631   0.50021   0.56062   0.87403   0.95597
 Alpha virt. eigenvalues --    1.00247   1.04767   1.07998   1.11215   1.23151

 Mulliken charges:
               1
     1  C    0.119955
     2  C   -0.511768
     3  H    0.262909
     4  H    0.241005
     5  H    0.236712
     6  O   -0.388110
     7  O   -0.365715
     8  H    0.405012
 Sum of Mulliken charges =   0.00000

 Dipole moment (field-independent basis, Debye):
    X=              3.4010    Y=             -1.1613    Z=             -0.7620  Tot=              3.6737
 Quadrupole moment (field-independent basis, Debye-Ang):
   XX=            -25.5358   YY=            -21.2437   ZZ=            -23.8642
   XY=              1.8223   XZ=             -0.9893   YZ=              1.7991

 Normal termination of Gaussian 09 at Fri Apr 12 14:52:34 2019.
