 Gaussian 09, Revision D.01,
 Gaussian 09:  AS64L-G09RevD.01 24-Apr-2013

 --------------------------------------------------------------------
 #p hf 3-21g scf=tight NoSymmetry guess=read opt=(tight,modredundant)
 --------------------------------------------------------------------

 -----------------------------------
 Geometry optimization at the 2D-PES
 -----------------------------------
 Symbolic Z-matrix:
 Charge =  0 Multiplicity = 1

 SCF Done:  E(RHF) =  -226.378859518     A.U. after   13 cycles
 SCF Done:  E(RHF) =  -226.378863280     A.U. after   12 cycles
 SCF Done:  E(RHF) =  -226.378869413     A.U. after   11 cycles
 SCF Done:  E(RHF) =  -226.378869425     A.U. after    8 cycles
 SCF Done:  E(RHF) =  -226.378869426     A.U. after    6 cycles
 Optimization completed.
    -- Stationary point found.

                          Input orientation:
 ---------------------------------------------------------------------
 Center     Atomic      Atomic             Coordinates (Angstroms)
 Number     Number       Type             X           Y           Z
 ---------------------------------------------------------------------
      1          6           0        0.770350    0.627977    0.060934
      2          6           0        1.384867   -0.525641    0.000656
      3          1           0        1.287280    1.568371    0.076137
      4          1           0        2.453704   -0.571047   -0.026543
      5          1           0        0.834854   -1.443544   -0.030619
      6          8           0       -0.626160    0.704105   -0.005939
      7          8           0       -1.148327    1.966145    0.533777
      8          1           0       -0.367555    2.532827    0.670320
 ---------------------------------------------------------------------

 Alpha  occ. eigenvalues --  -20.54119 -20.53132 -11.25933 -11.17897  -1.47876
 Alpha  occ. eigenvalues --   -1.24663  -1.04261  -0.82201  -0.71857  -0.67289
 Alpha  occ. eigenvalues --   -0.63522  -0.58880  -0.55622  -0.52728  -0.48752
 Alpha  occ. eigenvalues --   -0.36799
 Alpha virt. eigenvalues --    0.17042   0.22745   0.23575   0.30869   0.34136
 Alpha virt. eigenvalues --    0.35647   0.51387   0.56230   0.88734   0.95764
 Alpha virt. eigenvalues --    0.99247   1.05471   1.09785   1.11214   1.23000

 Mulliken charges:
               1
     1  C    0.122355
     2  C   -0.486510
     3  H    0.224813
     4  H    0.231297
     5  H    0.252327
     6  O   -0.381040
     7  O   -0.362189
     8  H    0.398948
 Sum of Mulliken charges =   0.00000

 Dipole moment (field-independent basis, Debye):
    X=              3.3728    Y=              1.1638    Z=              0.3935  Tot=              3.5895
 Quadrupole moment (field-independent basis, Debye-Ang):
   XX=            -25.2991   YY=            -16.5669   ZZ=            -25.4601
   XY=              3.8405   XZ=              0.6243   YZ=              1.6576

 Normal termination of Gaussian 09 at Fri Apr 12 15:54:12 2019.
