 Gaussian 09, Revision D.01,
 Gaussian 09:  AS64L-G09RevD.01 24-Apr-2013

 --------------------------------------------------------------------
 #p hf 3-21g scf=tight NoSymmetry guess=read opt=(tight,modredundant)
 --------------------------------------------------------------------

 -----------------------------------
 Geometry optimization at the 2D-PES
 -----------------------------------
 Symbolic Z-matrix:
 Charge =  0 Multiplicity = 1

 SCF Done:  E(RHF) =  -226.394470605     A.U. after   13 cycles
 SCF Done:  E(RHF) =  -226.394474192     A.U. after   11 cycles
 SCF Done:  E(RHF) =  -226.394475888     A.U. after   10 cycles
 SCF Done:  E(RHF) =  -226.394475935     A.U. after    8 cycles
 SCF Done:  E(RHF) =  -226.394475939     A.U. after    7 cycles
 Optimization completed.
    -- Stationary point found.

                          Input orientation:
 ---------------------------------------------------------------------
 Center     Atomic      Atomic             Coordinates (Angstroms)
 Number     Number       Type             X           Y           Z
 ---------------------------------------------------------------------
      1          6           0        0.725486    0.631455    0.048609
      2          6           0        1.369460   -0.506725    0.004838
      3          1           0        1.187267    1.592054    0.126639
      4          1           0        2.439893   -0.529229   -0.000459
      5          1           0        0.843772   -1.438156   -0.050817
      6          8           0       -0.677378    0.666891   -0.025085
      7          8           0       -1.124551    1.300671    1.229822
      8          1           0       -1.900094    0.746140    1.419760
 ---------------------------------------------------------------------

 Alpha  occ. eigenvalues --  -20.52761 -20.51823 -11.23969 -11.17508  -1.46603
 Alpha  occ. eigenvalues --   -1.23327  -1.03123  -0.79479  -0.70445  -0.67128
 Alpha  occ. eigenvalues --   -0.62927  -0.60146  -0.55791  -0.49512  -0.45481
 Alpha  occ. eigenvalues --   -0.37956
 Alpha virt. eigenvalues --    0.16433   0.26366   0.28499   0.31287   0.32347
 Alpha virt. eigenvalues --    0.36046   0.49413   0.56909   0.89372   0.97251
 Alpha virt. eigenvalues --    0.99051   1.07160   1.10329   1.12782   1.22737

 Mulliken charges:
               1
     1  C    0.154159
     2  C   -0.475020
     3  H    0.246641
     4  H    0.228007
     5  H    0.238906
     6  O   -0.415675
     7  O   -0.393464
     8  H    0.416445
 Sum of Mulliken charges =   0.00000

 Dipole moment (field-independent basis, Debye):
    X=              0.3152    Y=             -1.1883    Z=              0.6856  Tot=              1.4076
 Quadrupole moment (field-independent basis, Debye-Ang):
   XX=            -17.7884   YY=            -24.4581   ZZ=            -24.5352
   XY=              1.4552   XZ=             -3.1057   YZ=             -0.8035

 Normal termination of Gaussian 09 at Fri Apr 12 16:13:46 2019.
