 Gaussian 09, Revision D.01,
 Gaussian 09:  AS64L-G09RevD.01 24-Apr-2013

 --------------------------------------------------------------------
 #p hf 3-21g scf=tight NoSymmetry guess=read opt=(tight,modredundant)
 --------------------------------------------------------------------

 -----------------------------------
 Geometry optimization at the 2D-PES
 -----------------------------------
 Symbolic Z-matrix:
 Charge =  0 Multiplicity = 1

 SCF Done:  E(RHF) =  -226.381377455     A.U. after   13 cycles
 SCF Done:  E(RHF) =  -226.381385039     A.U. after   12 cycles
 SCF Done:  E(RHF) =  -226.381396332     A.U. after   11 cycles
 SCF Done:  E(RHF) =  -226.381396356     A.U. after    9 cycles
 SCF Done:  E(RHF) =  -226.381396359     A.U. after    8 cycles
 Optimization completed.
    -- Stationary point found.

                          Input orientation:
 ---------------------------------------------------------------------
 Center     Atomic      Atomic             Coordinates (Angstroms)
 Number     Number       Type             X           Y           Z
 ---------------------------------------------------------------------
      1          6           0        0.764574    0.629771    0.063984
      2          6           0        1.383030   -0.521398    0.003580
      3          1           0        1.275080    1.573655    0.084847
      4          1           0        2.451852   -0.565027   -0.031117
      5          1           0        0.834271   -1.440185   -0.023924
      6          8           0       -0.632645    0.702217   -0.015488
      7          8           0       -1.156465    1.849189    0.737125
      8          1           0       -0.448883    2.518583    0.693937
 ---------------------------------------------------------------------

 Alpha  occ. eigenvalues --  -20.54014 -20.52975 -11.25672 -11.18026  -1.47797
 Alpha  occ. eigenvalues --   -1.24440  -1.04200  -0.81983  -0.71437  -0.67797
 Alpha  occ. eigenvalues --   -0.63543  -0.58347  -0.56053  -0.52177  -0.48370
 Alpha  occ. eigenvalues --   -0.37174
 Alpha virt. eigenvalues --    0.16741   0.23428   0.23846   0.30850   0.34214
 Alpha virt. eigenvalues --    0.35432   0.51033   0.56220   0.88812   0.95833
 Alpha virt. eigenvalues --    0.99242   1.05469   1.09819   1.11138   1.23528

 Mulliken charges:
               1
     1  C    0.123253
     2  C   -0.480831
     3  H    0.221699
     4  H    0.231020
     5  H    0.253077
     6  O   -0.381450
     7  O   -0.364241
     8  H    0.397475
 Sum of Mulliken charges =   0.00000

 Dipole moment (field-independent basis, Debye):
    X=              3.2588    Y=              1.2815    Z=              0.0647  Tot=              3.5023
 Quadrupole moment (field-independent basis, Debye-Ang):
   XX=            -25.2046   YY=            -15.8755   ZZ=            -25.9227
   XY=              3.1432   XZ=              0.9317   YZ=              1.1031

 Normal termination of Gaussian 09 at Fri Apr 12 15:55:39 2019.
