 Gaussian 09, Revision D.01,
 Gaussian 09:  AS64L-G09RevD.01 24-Apr-2013

 --------------------------------------------------------------------
 #p hf 3-21g scf=tight NoSymmetry guess=read opt=(tight,modredundant)
 --------------------------------------------------------------------

 -----------------------------------
 Geometry optimization at the 2D-PES
 -----------------------------------
 Symbolic Z-matrix:
 Charge =  0 Multiplicity = 1

 SCF Done:  E(RHF) =  -226.398153350     A.U. after   13 cycles
 SCF Done:  E(RHF) =  -226.398158357     A.U. after   11 cycles
 SCF Done:  E(RHF) =  -226.398165973     A.U. after   11 cycles
 SCF Done:  E(RHF) =  -226.398166052     A.U. after    9 cycles
 SCF Done:  E(RHF) =  -226.398166061     A.U. after    8 cycles
 SCF Done:  E(RHF) =  -226.398166062     A.U. after    6 cycles
 Optimization completed.
    -- Stationary point found.

                          Input orientation:
 ---------------------------------------------------------------------
 Center     Atomic      Atomic             Coordinates (Angstroms)
 Number     Number       Type             X           Y           Z
 ---------------------------------------------------------------------
      1          6           0        0.737504    0.571132    0.031788
      2          6           0        1.428668   -0.536288   -0.052679
      3          1           0        1.166684    1.549898    0.093902
      4          1           0        2.498002   -0.494585   -0.056584
      5          1           0        0.955005   -1.489719   -0.130018
      6          8           0       -0.651711    0.708095    0.050584
      7          8           0       -1.282025   -0.604395   -0.040251
      8          1           0       -1.782601   -0.612886    0.793357
 ---------------------------------------------------------------------

 Alpha  occ. eigenvalues --  -20.54126 -20.53030 -11.24404 -11.15953  -1.48274
 Alpha  occ. eigenvalues --   -1.24153  -1.03056  -0.79489  -0.71023  -0.68086
 Alpha  occ. eigenvalues --   -0.64548  -0.58592  -0.54053  -0.51306  -0.48751
 Alpha  occ. eigenvalues --   -0.35951
 Alpha virt. eigenvalues --    0.20036   0.22584   0.28756   0.30028   0.33866
 Alpha virt. eigenvalues --    0.37318   0.49773   0.58975   0.89043   0.96850
 Alpha virt. eigenvalues --    1.01910   1.07329   1.10500   1.12826   1.22052

 Mulliken charges:
               1
     1  C    0.148836
     2  C   -0.510089
     3  H    0.258910
     4  H    0.219933
     5  H    0.251148
     6  O   -0.411262
     7  O   -0.376838
     8  H    0.419361
 Sum of Mulliken charges =   0.00000

 Dipole moment (field-independent basis, Debye):
    X=              0.4875    Y=             -0.2117    Z=              1.7571  Tot=              1.8357
 Quadrupole moment (field-independent basis, Debye-Ang):
   XX=            -19.8981   YY=            -22.3476   ZZ=            -24.2801
   XY=              2.4397   XZ=             -3.3198   YZ=             -0.9228

 Normal termination of Gaussian 09 at Fri Apr 12 18:00:57 2019.
