 Gaussian 09, Revision D.01,
 Gaussian 09:  AS64L-G09RevD.01 24-Apr-2013

 --------------------------------------------------------------------
 #p hf 3-21g scf=tight NoSymmetry guess=read opt=(tight,modredundant)
 --------------------------------------------------------------------

 -----------------------------------
 Geometry optimization at the 2D-PES
 -----------------------------------
 Symbolic Z-matrix:
 Charge =  0 Multiplicity = 1

 SCF Done:  E(RHF) =  -226.381229897     A.U. after   13 cycles
 SCF Done:  E(RHF) =  -226.381233120     A.U. after   10 cycles
 SCF Done:  E(RHF) =  -226.381233748     A.U. after    9 cycles
 SCF Done:  E(RHF) =  -226.381233782     A.U. after    7 cycles
 SCF Done:  E(RHF) =  -226.381233786     A.U. after    6 cycles
 Optimization completed.
    -- Stationary point found.

                          Input orientation:
 ---------------------------------------------------------------------
 Center     Atomic      Atomic             Coordinates (Angstroms)
 Number     Number       Type             X           Y           Z
 ---------------------------------------------------------------------
      1          6           0        0.760180    0.626152    0.049637
      2          6           0        1.387459   -0.521466   -0.000749
      3          1           0        1.249292    1.580385    0.075752
      4          1           0        2.457186   -0.561616   -0.029484
      5          1           0        0.841733   -1.442135   -0.037375
      6          8           0       -0.643836    0.681275   -0.010885
      7          8           0       -1.184392    1.310478    1.213724
      8          1           0       -0.400813    1.525813    1.752632
 ---------------------------------------------------------------------

 Alpha  occ. eigenvalues --  -20.53210 -20.52080 -11.25171 -11.19232  -1.46652
 Alpha  occ. eigenvalues --   -1.23756  -1.04642  -0.81629  -0.71609  -0.67607
 Alpha  occ. eigenvalues --   -0.60946  -0.59426  -0.56314  -0.52771  -0.45291
 Alpha  occ. eigenvalues --   -0.38901
 Alpha virt. eigenvalues --    0.14062   0.25669   0.27220   0.29957   0.31812
 Alpha virt. eigenvalues --    0.35356   0.49098   0.55664   0.87636   0.96108
 Alpha virt. eigenvalues --    0.98405   1.05983   1.09145   1.11122   1.24240

 Mulliken charges:
               1
     1  C    0.072642
     2  C   -0.452336
     3  H    0.238214
     4  H    0.233614
     5  H    0.258509
     6  O   -0.374388
     7  O   -0.374735
     8  H    0.398481
 Sum of Mulliken charges =   0.00000

 Dipole moment (field-independent basis, Debye):
    X=              3.6322    Y=              0.0912    Z=              1.2025  Tot=              3.8272
 Quadrupole moment (field-independent basis, Debye-Ang):
   XX=            -25.2602   YY=            -20.8742   ZZ=            -22.2806
   XY=              2.8998   XZ=              1.3871   YZ=              2.5532

 Normal termination of Gaussian 09 at Fri Apr 12 16:19:55 2019.
