 Gaussian 09, Revision D.01,
 Gaussian 09:  AS64L-G09RevD.01 24-Apr-2013

 --------------------------------------------------------------------
 #p hf 3-21g scf=tight NoSymmetry guess=read opt=(tight,modredundant)
 --------------------------------------------------------------------

 -----------------------------------
 Geometry optimization at the 2D-PES
 -----------------------------------
 Symbolic Z-matrix:
 Charge =  0 Multiplicity = 1

 SCF Done:  E(RHF) =  -226.390569322     A.U. after   13 cycles
 SCF Done:  E(RHF) =  -226.390577291     A.U. after   11 cycles
 SCF Done:  E(RHF) =  -226.390582162     A.U. after   10 cycles
 SCF Done:  E(RHF) =  -226.390582197     A.U. after    8 cycles
 SCF Done:  E(RHF) =  -226.390582202     A.U. after    7 cycles
 Optimization completed.
    -- Stationary point found.

                          Input orientation:
 ---------------------------------------------------------------------
 Center     Atomic      Atomic             Coordinates (Angstroms)
 Number     Number       Type             X           Y           Z
 ---------------------------------------------------------------------
      1          6           0        0.737507    0.611843    0.047815
      2          6           0        1.387429   -0.520689   -0.014329
      3          1           0        1.208538    1.572245    0.099679
      4          1           0        2.458254   -0.537240   -0.006746
      5          1           0        0.866317   -1.455068   -0.059314
      6          8           0       -0.672146    0.686324    0.002376
      7          8           0       -1.205236    0.136158    1.258352
      8          1           0       -1.543952    0.945232    1.680033
 ---------------------------------------------------------------------

 Alpha  occ. eigenvalues --  -20.52396 -20.51803 -11.23683 -11.17613  -1.46335
 Alpha  occ. eigenvalues --   -1.22869  -1.03273  -0.79524  -0.70160  -0.66816
 Alpha  occ. eigenvalues --   -0.63186  -0.59691  -0.55594  -0.48160  -0.45861
 Alpha  occ. eigenvalues --   -0.38211
 Alpha virt. eigenvalues --    0.15490   0.26303   0.29227   0.30555   0.32172
 Alpha virt. eigenvalues --    0.36766   0.49742   0.56746   0.88468   0.97206
 Alpha virt. eigenvalues --    0.98861   1.06535   1.10134   1.12522   1.23692

 Mulliken charges:
               1
     1  C    0.118585
     2  C   -0.449042
     3  H    0.234247
     4  H    0.225639
     5  H    0.254053
     6  O   -0.408261
     7  O   -0.383523
     8  H    0.408303
 Sum of Mulliken charges =   0.00000

 Dipole moment (field-independent basis, Debye):
    X=              1.3218    Y=              1.2859    Z=              1.1790  Tot=              2.1887
 Quadrupole moment (field-independent basis, Debye-Ang):
   XX=            -20.9418   YY=            -20.3224   ZZ=            -22.8795
   XY=             -1.7637   XZ=             -2.4635   YZ=              3.4944

 Normal termination of Gaussian 09 at Fri Apr 12 16:52:09 2019.
