 Gaussian 09, Revision D.01,
 Gaussian 09:  AS64L-G09RevD.01 24-Apr-2013

 --------------------------------------------------------------------
 #p hf 3-21g scf=tight NoSymmetry guess=read opt=(tight,modredundant)
 --------------------------------------------------------------------

 -----------------------------------
 Geometry optimization at the 2D-PES
 -----------------------------------
 Symbolic Z-matrix:
 Charge =  0 Multiplicity = 1

 SCF Done:  E(RHF) =  -226.383014444     A.U. after   13 cycles
 SCF Done:  E(RHF) =  -226.383029225     A.U. after   12 cycles
 SCF Done:  E(RHF) =  -226.383035985     A.U. after   10 cycles
 SCF Done:  E(RHF) =  -226.383036166     A.U. after   10 cycles
 SCF Done:  E(RHF) =  -226.383036175     A.U. after    7 cycles
 SCF Done:  E(RHF) =  -226.383036177     A.U. after    6 cycles
 Optimization completed.
    -- Stationary point found.

                          Input orientation:
 ---------------------------------------------------------------------
 Center     Atomic      Atomic             Coordinates (Angstroms)
 Number     Number       Type             X           Y           Z
 ---------------------------------------------------------------------
      1          6           0        0.743823    0.634271    0.030899
      2          6           0        1.387177   -0.505798   -0.010216
      3          1           0        1.214371    1.594856    0.086501
      4          1           0        2.456969   -0.534046    0.031317
      5          1           0        0.855383   -1.434460   -0.059043
      6          8           0       -0.664690    0.661678    0.040409
      7          8           0       -1.150230    1.191430   -1.252901
      8          1           0       -0.395584    1.069232   -1.859078
 ---------------------------------------------------------------------

 Alpha  occ. eigenvalues --  -20.53031 -20.51956 -11.25087 -11.19526  -1.46575
 Alpha  occ. eigenvalues --   -1.23519  -1.04828  -0.81311  -0.72051  -0.67106
 Alpha  occ. eigenvalues --   -0.61392  -0.59291  -0.56227  -0.52683  -0.44602
 Alpha  occ. eigenvalues --   -0.39640
 Alpha virt. eigenvalues --    0.13928   0.26292   0.27445   0.29747   0.30934
 Alpha virt. eigenvalues --    0.35686   0.48741   0.55478   0.87616   0.96654
 Alpha virt. eigenvalues --    0.97505   1.05374   1.08719   1.11120   1.24121

 Mulliken charges:
               1
     1  C    0.067127
     2  C   -0.450383
     3  H    0.244756
     4  H    0.235073
     5  H    0.257280
     6  O   -0.375739
     7  O   -0.376571
     8  H    0.398455
 Sum of Mulliken charges =   0.00000

 Dipole moment (field-independent basis, Debye):
    X=              3.6197    Y=             -0.5380    Z=             -1.2917  Tot=              3.8807
 Quadrupole moment (field-independent basis, Debye-Ang):
   XX=            -25.1668   YY=            -22.6442   ZZ=            -21.6352
   XY=              2.9002   XZ=             -1.2090   YZ=             -0.9289

 Normal termination of Gaussian 09 at Fri Apr 12 15:10:58 2019.
