 Gaussian 09, Revision D.01,
 Gaussian 09:  AS64L-G09RevD.01 24-Apr-2013

 --------------------------------------------------------------------
 #p hf 3-21g scf=tight NoSymmetry guess=read opt=(tight,modredundant)
 --------------------------------------------------------------------

 -----------------------------------
 Geometry optimization at the 2D-PES
 -----------------------------------
 Symbolic Z-matrix:
 Charge =  0 Multiplicity = 1

 SCF Done:  E(RHF) =  -226.398204307     A.U. after   13 cycles
 SCF Done:  E(RHF) =  -226.398208356     A.U. after   11 cycles
 SCF Done:  E(RHF) =  -226.398215705     A.U. after   11 cycles
 SCF Done:  E(RHF) =  -226.398215767     A.U. after    9 cycles
 SCF Done:  E(RHF) =  -226.398215773     A.U. after    8 cycles
 Optimization completed.
    -- Stationary point found.

                          Input orientation:
 ---------------------------------------------------------------------
 Center     Atomic      Atomic             Coordinates (Angstroms)
 Number     Number       Type             X           Y           Z
 ---------------------------------------------------------------------
      1          6           0        0.734993    0.570061    0.040971
      2          6           0        1.423946   -0.538204   -0.051382
      3          1           0        1.166727    1.547786    0.100665
      4          1           0        2.493321   -0.498290   -0.061071
      5          1           0        0.949294   -1.493347   -0.094068
      6          8           0       -0.653341    0.708821    0.047838
      7          8           0       -1.278329   -0.604999    0.172784
      8          1           0       -1.916046   -0.556540   -0.559273
 ---------------------------------------------------------------------

 Alpha  occ. eigenvalues --  -20.54019 -20.52954 -11.24326 -11.15891  -1.48132
 Alpha  occ. eigenvalues --   -1.24137  -1.02956  -0.79307  -0.71166  -0.67823
 Alpha  occ. eigenvalues --   -0.64662  -0.58472  -0.53737  -0.51713  -0.48545
 Alpha  occ. eigenvalues --   -0.35803
 Alpha virt. eigenvalues --    0.19784   0.22977   0.28789   0.30150   0.33890
 Alpha virt. eigenvalues --    0.37367   0.49882   0.58962   0.89154   0.97018
 Alpha virt. eigenvalues --    1.01886   1.07415   1.10553   1.13021   1.21980

 Mulliken charges:
               1
     1  C    0.152442
     2  C   -0.508222
     3  H    0.258593
     4  H    0.219663
     5  H    0.249807
     6  O   -0.414705
     7  O   -0.378093
     8  H    0.420515
 Sum of Mulliken charges =   0.00000

 Dipole moment (field-independent basis, Debye):
    X=              0.1985    Y=             -0.1012    Z=             -1.5268  Tot=              1.5430
 Quadrupole moment (field-independent basis, Debye-Ang):
   XX=            -18.7286   YY=            -22.4993   ZZ=            -25.0759
   XY=              2.3934   XZ=              3.0995   YZ=              1.1749

 Normal termination of Gaussian 09 at Fri Apr 12 17:50:50 2019.
