 Gaussian 09, Revision D.01,
 Gaussian 09:  AS64L-G09RevD.01 24-Apr-2013

 --------------------------------------------------------------------
 #p hf 3-21g scf=tight NoSymmetry guess=read opt=(tight,modredundant)
 --------------------------------------------------------------------

 -----------------------------------
 Geometry optimization at the 2D-PES
 -----------------------------------
 Symbolic Z-matrix:
 Charge =  0 Multiplicity = 1

 SCF Done:  E(RHF) =  -226.391507975     A.U. after   13 cycles
 SCF Done:  E(RHF) =  -226.391516054     A.U. after   12 cycles
 SCF Done:  E(RHF) =  -226.391523554     A.U. after   10 cycles
 SCF Done:  E(RHF) =  -226.391523586     A.U. after    9 cycles
 SCF Done:  E(RHF) =  -226.391523592     A.U. after    8 cycles
 Optimization completed.
    -- Stationary point found.

                          Input orientation:
 ---------------------------------------------------------------------
 Center     Atomic      Atomic             Coordinates (Angstroms)
 Number     Number       Type             X           Y           Z
 ---------------------------------------------------------------------
      1          6           0        0.735967    0.638906    0.019767
      2          6           0        1.373753   -0.503540   -0.020587
      3          1           0        1.197116    1.601633    0.079054
      4          1           0        2.442870   -0.532281    0.026700
      5          1           0        0.843798   -1.432613   -0.077507
      6          8           0       -0.670136    0.669771    0.050459
      7          8           0       -1.102560    1.771641   -0.814285
      8          1           0       -0.880803    1.439326   -1.703997
 ---------------------------------------------------------------------

 Alpha  occ. eigenvalues --  -20.53714 -20.52732 -11.24723 -11.18034  -1.47831
 Alpha  occ. eigenvalues --   -1.23833  -1.03865  -0.80499  -0.72549  -0.65676
 Alpha  occ. eigenvalues --   -0.64214  -0.59764  -0.55522  -0.50720  -0.47527
 Alpha  occ. eigenvalues --   -0.37980
 Alpha virt. eigenvalues --    0.16248   0.24767   0.27337   0.30947   0.32447
 Alpha virt. eigenvalues --    0.35591   0.48903   0.56566   0.88985   0.96471
 Alpha virt. eigenvalues --    0.98806   1.06088   1.09699   1.10517   1.24749

 Mulliken charges:
               1
     1  C    0.113215
     2  C   -0.484306
     3  H    0.254608
     4  H    0.231366
     5  H    0.245996
     6  O   -0.387232
     7  O   -0.377190
     8  H    0.403543
 Sum of Mulliken charges =   0.00000

 Dipole moment (field-independent basis, Debye):
    X=              2.3380    Y=             -0.6089    Z=             -1.9340  Tot=              3.0947
 Quadrupole moment (field-independent basis, Debye-Ang):
   XX=            -24.0052   YY=            -24.1493   ZZ=            -20.7759
   XY=              2.5954   XZ=              1.6455   YZ=             -1.9992

 Normal termination of Gaussian 09 at Fri Apr 12 15:23:14 2019.
