 Gaussian 09, Revision D.01,
 Gaussian 09:  AS64L-G09RevD.01 24-Apr-2013

 --------------------------------------------------------------------
 #p hf 3-21g scf=tight NoSymmetry guess=read opt=(tight,modredundant)
 --------------------------------------------------------------------

 -----------------------------------
 Geometry optimization at the 2D-PES
 -----------------------------------
 Symbolic Z-matrix:
 Charge =  0 Multiplicity = 1

 SCF Done:  E(RHF) =  -226.397730033     A.U. after   13 cycles
 SCF Done:  E(RHF) =  -226.397736060     A.U. after   11 cycles
 SCF Done:  E(RHF) =  -226.397742964     A.U. after   10 cycles
 SCF Done:  E(RHF) =  -226.397743061     A.U. after    9 cycles
 SCF Done:  E(RHF) =  -226.397743073     A.U. after    8 cycles
 SCF Done:  E(RHF) =  -226.397743073     A.U. after    6 cycles
 Optimization completed.
    -- Stationary point found.

                          Input orientation:
 ---------------------------------------------------------------------
 Center     Atomic      Atomic             Coordinates (Angstroms)
 Number     Number       Type             X           Y           Z
 ---------------------------------------------------------------------
      1          6           0        0.736805    0.570097    0.045317
      2          6           0        1.425270   -0.538328   -0.046611
      3          1           0        1.168092    1.549005    0.089789
      4          1           0        2.494698   -0.498977   -0.059064
      5          1           0        0.948665   -1.491916   -0.104515
      6          8           0       -0.653309    0.707664    0.051965
      7          8           0       -1.280686   -0.604111    0.177134
      8          1           0       -1.774839   -0.478422    1.005010
 ---------------------------------------------------------------------

 Alpha  occ. eigenvalues --  -20.54033 -20.52940 -11.24342 -11.15976  -1.48166
 Alpha  occ. eigenvalues --   -1.24067  -1.03024  -0.79502  -0.71086  -0.67635
 Alpha  occ. eigenvalues --   -0.64231  -0.59341  -0.54197  -0.50624  -0.48749
 Alpha  occ. eigenvalues --   -0.35992
 Alpha virt. eigenvalues --    0.19749   0.22881   0.28765   0.30065   0.33889
 Alpha virt. eigenvalues --    0.37313   0.49811   0.58944   0.89029   0.96874
 Alpha virt. eigenvalues --    1.01820   1.07325   1.10545   1.12881   1.22061

 Mulliken charges:
               1
     1  C    0.146063
     2  C   -0.507156
     3  H    0.257630
     4  H    0.219752
     5  H    0.253611
     6  O   -0.411251
     7  O   -0.378113
     8  H    0.419462
 Sum of Mulliken charges =   0.00000

 Dipole moment (field-independent basis, Debye):
    X=              0.5242    Y=              0.0472    Z=              1.8140  Tot=              1.8888
 Quadrupole moment (field-independent basis, Debye-Ang):
   XX=            -19.9436   YY=            -22.6738   ZZ=            -23.4877
   XY=              1.8483   XZ=             -3.5707   YZ=             -0.6201

 Normal termination of Gaussian 09 at Fri Apr 12 17:47:52 2019.
