 Gaussian 09, Revision D.01,
 Gaussian 09:  AS64L-G09RevD.01 24-Apr-2013

 --------------------------------------------------------------------
 #p hf 3-21g scf=tight NoSymmetry guess=read opt=(tight,modredundant)
 --------------------------------------------------------------------

 -----------------------------------
 Geometry optimization at the 2D-PES
 -----------------------------------
 Symbolic Z-matrix:
 Charge =  0 Multiplicity = 1

 SCF Done:  E(RHF) =  -226.392784004     A.U. after   13 cycles
 SCF Done:  E(RHF) =  -226.392785063     A.U. after   11 cycles
 SCF Done:  E(RHF) =  -226.392785158     A.U. after    8 cycles
 SCF Done:  E(RHF) =  -226.392785175     A.U. after    7 cycles
 SCF Done:  E(RHF) =  -226.392785176     A.U. after    6 cycles
 Optimization completed.
    -- Stationary point found.

                          Input orientation:
 ---------------------------------------------------------------------
 Center     Atomic      Atomic             Coordinates (Angstroms)
 Number     Number       Type             X           Y           Z
 ---------------------------------------------------------------------
      1          6           0        0.730754    0.607011    0.052168
      2          6           0        1.386987   -0.522022   -0.019383
      3          1           0        1.194867    1.569923    0.102112
      4          1           0        2.457654   -0.529439   -0.012635
      5          1           0        0.875092   -1.461374   -0.055373
      6          8           0       -0.671329    0.694597    0.008005
      7          8           0       -1.199894   -0.080622    1.147110
      8          1           0       -2.149903    0.063457    0.996022
 ---------------------------------------------------------------------

 Alpha  occ. eigenvalues --  -20.52316 -20.51762 -11.23590 -11.17063  -1.46138
 Alpha  occ. eigenvalues --   -1.23046  -1.02927  -0.78815  -0.70407  -0.66437
 Alpha  occ. eigenvalues --   -0.64199  -0.58592  -0.54418  -0.51237  -0.44911
 Alpha  occ. eigenvalues --   -0.37077
 Alpha virt. eigenvalues --    0.16093   0.26724   0.29392   0.30483   0.32484
 Alpha virt. eigenvalues --    0.37144   0.50150   0.57278   0.89049   0.97620
 Alpha virt. eigenvalues --    0.99609   1.07142   1.10536   1.12395   1.23692

 Mulliken charges:
               1
     1  C    0.139859
     2  C   -0.459448
     3  H    0.243056
     4  H    0.224453
     5  H    0.247833
     6  O   -0.423906
     7  O   -0.387921
     8  H    0.416073
 Sum of Mulliken charges =   0.00000

 Dipole moment (field-independent basis, Debye):
    X=             -0.0555    Y=             -0.0520    Z=             -0.0171  Tot=              0.0780
 Quadrupole moment (field-independent basis, Debye-Ang):
   XX=            -15.8221   YY=            -22.3426   ZZ=            -26.3257
   XY=              0.8285   XZ=             -1.7307   YZ=              0.6430

 Normal termination of Gaussian 09 at Fri Apr 12 17:00:49 2019.
