 Gaussian 09, Revision D.01,
 Gaussian 09:  AS64L-G09RevD.01 24-Apr-2013

 --------------------------------------------------------------------
 #p hf 3-21g scf=tight NoSymmetry guess=read opt=(tight,modredundant)
 --------------------------------------------------------------------

 -----------------------------------
 Geometry optimization at the 2D-PES
 -----------------------------------
 Symbolic Z-matrix:
 Charge =  0 Multiplicity = 1

 SCF Done:  E(RHF) =  -226.396324502     A.U. after   13 cycles
 SCF Done:  E(RHF) =  -226.396327052     A.U. after   11 cycles
 SCF Done:  E(RHF) =  -226.396328618     A.U. after   10 cycles
 SCF Done:  E(RHF) =  -226.396328660     A.U. after    8 cycles
 SCF Done:  E(RHF) =  -226.396328661     A.U. after    6 cycles
 Optimization completed.
    -- Stationary point found.

                          Input orientation:
 ---------------------------------------------------------------------
 Center     Atomic      Atomic             Coordinates (Angstroms)
 Number     Number       Type             X           Y           Z
 ---------------------------------------------------------------------
      1          6           0        0.726053    0.634752    0.055148
      2          6           0        1.367339   -0.505185    0.001633
      3          1           0        1.183696    1.598014    0.117080
      4          1           0        2.437278   -0.524261   -0.014291
      5          1           0        0.842940   -1.437803   -0.039241
      6          8           0       -0.670377    0.674347   -0.017831
      7          8           0       -1.080183    1.851135    0.761082
      8          1           0       -1.968077    1.982953    0.389344
 ---------------------------------------------------------------------

 Alpha  occ. eigenvalues --  -20.53390 -20.52454 -11.24115 -11.16539  -1.47420
 Alpha  occ. eigenvalues --   -1.23916  -1.02644  -0.79657  -0.69985  -0.67941
 Alpha  occ. eigenvalues --   -0.64550  -0.57714  -0.55527  -0.51442  -0.47412
 Alpha  occ. eigenvalues --   -0.36044
 Alpha virt. eigenvalues --    0.18101   0.24458   0.28112   0.32071   0.33383
 Alpha virt. eigenvalues --    0.36124   0.49904   0.57623   0.90275   0.97350
 Alpha virt. eigenvalues --    1.00323   1.06890   1.10940   1.12407   1.23244

 Mulliken charges:
               1
     1  C    0.169116
     2  C   -0.500372
     3  H    0.255984
     4  H    0.225874
     5  H    0.239313
     6  O   -0.420163
     7  O   -0.390615
     8  H    0.420863
 Sum of Mulliken charges =   0.00000

 Dipole moment (field-independent basis, Debye):
    X=             -0.1190    Y=              0.5918    Z=             -0.5891  Tot=              0.8434
 Quadrupole moment (field-independent basis, Debye-Ang):
   XX=            -17.0471   YY=            -20.5901   ZZ=            -26.6891
   XY=             -2.9869   XZ=              0.0729   YZ=             -1.0253

 Normal termination of Gaussian 09 at Fri Apr 12 15:59:18 2019.
