 Gaussian 09, Revision D.01,
 Gaussian 09:  AS64L-G09RevD.01 24-Apr-2013

 --------------------------------------------------------------------
 #p hf 3-21g scf=tight NoSymmetry guess=read opt=(tight,modredundant)
 --------------------------------------------------------------------

 -----------------------------------
 Geometry optimization at the 2D-PES
 -----------------------------------
 Symbolic Z-matrix:
 Charge =  0 Multiplicity = 1

 SCF Done:  E(RHF) =  -226.394095721     A.U. after   13 cycles
 SCF Done:  E(RHF) =  -226.394103736     A.U. after   11 cycles
 SCF Done:  E(RHF) =  -226.394111510     A.U. after   10 cycles
 SCF Done:  E(RHF) =  -226.394111549     A.U. after    8 cycles
 SCF Done:  E(RHF) =  -226.394111551     A.U. after    6 cycles
 Optimization completed.
    -- Stationary point found.

                          Input orientation:
 ---------------------------------------------------------------------
 Center     Atomic      Atomic             Coordinates (Angstroms)
 Number     Number       Type             X           Y           Z
 ---------------------------------------------------------------------
      1          6           0        0.733694    0.636820    0.027819
      2          6           0        1.371636   -0.505457   -0.014031
      3          1           0        1.193382    1.598256    0.098728
      4          1           0        2.441173   -0.526867    0.017872
      5          1           0        0.848342   -1.438060   -0.071348
      6          8           0       -0.670383    0.676751    0.033668
      7          8           0       -1.074021    2.067108   -0.158425
      8          1           0       -1.293522    2.072155   -1.106866
 ---------------------------------------------------------------------

 Alpha  occ. eigenvalues --  -20.53926 -20.53194 -11.24534 -11.16725  -1.48292
 Alpha  occ. eigenvalues --   -1.24119  -1.03082  -0.80064  -0.72100  -0.66417
 Alpha  occ. eigenvalues --   -0.64997  -0.58381  -0.55062  -0.51468  -0.48709
 Alpha  occ. eigenvalues --   -0.36387
 Alpha virt. eigenvalues --    0.18730   0.22507   0.27348   0.31773   0.33765
 Alpha virt. eigenvalues --    0.35747   0.49513   0.57442   0.90012   0.96700
 Alpha virt. eigenvalues --    0.99943   1.05988   1.10590   1.11751   1.23523

 Mulliken charges:
               1
     1  C    0.144311
     2  C   -0.506643
     3  H    0.260671
     4  H    0.227763
     5  H    0.240226
     6  O   -0.402077
     7  O   -0.376873
     8  H    0.412623
 Sum of Mulliken charges =   0.00000

 Dipole moment (field-independent basis, Debye):
    X=              1.2650    Y=              0.4136    Z=             -2.0236  Tot=              2.4221
 Quadrupole moment (field-independent basis, Debye-Ang):
   XX=            -22.1109   YY=            -21.5607   ZZ=            -22.9737
   XY=              0.2433   XZ=              3.0821   YZ=             -4.1351

 Normal termination of Gaussian 09 at Fri Apr 12 15:36:05 2019.
