 Gaussian 09, Revision D.01,
 Gaussian 09:  AS64L-G09RevD.01 24-Apr-2013

 --------------------------------------------------------------------
 #p hf 3-21g scf=tight NoSymmetry guess=read opt=(tight,modredundant)
 --------------------------------------------------------------------

 -----------------------------------
 Geometry optimization at the 2D-PES
 -----------------------------------
 Symbolic Z-matrix:
 Charge =  0 Multiplicity = 1

 SCF Done:  E(RHF) =  -226.382384167     A.U. after   13 cycles
 SCF Done:  E(RHF) =  -226.382388572     A.U. after   12 cycles
 SCF Done:  E(RHF) =  -226.382393535     A.U. after   11 cycles
 SCF Done:  E(RHF) =  -226.382393553     A.U. after    9 cycles
 SCF Done:  E(RHF) =  -226.382393554     A.U. after    6 cycles
 Optimization completed.
    -- Stationary point found.

                          Input orientation:
 ---------------------------------------------------------------------
 Center     Atomic      Atomic             Coordinates (Angstroms)
 Number     Number       Type             X           Y           Z
 ---------------------------------------------------------------------
      1          6           0        0.754753    0.623205    0.047953
      2          6           0        1.387069   -0.520934   -0.001421
      3          1           0        1.242880    1.578120    0.084127
      4          1           0        2.457233   -0.558084   -0.021334
      5          1           0        0.844306   -1.443125   -0.042077
      6          8           0       -0.651531    0.681882   -0.012130
      7          8           0       -1.193437    1.087501    1.300764
      8          1           0       -0.498866    1.652804    1.687571
 ---------------------------------------------------------------------

 Alpha  occ. eigenvalues --  -20.53040 -20.52041 -11.24899 -11.19107  -1.46579
 Alpha  occ. eigenvalues --   -1.23515  -1.04470  -0.81488  -0.70758  -0.68343
 Alpha  occ. eigenvalues --   -0.60923  -0.58756  -0.57304  -0.51438  -0.45173
 Alpha  occ. eigenvalues --   -0.39155
 Alpha virt. eigenvalues --    0.14126   0.26351   0.26652   0.29981   0.32131
 Alpha virt. eigenvalues --    0.35395   0.49450   0.55622   0.87696   0.96092
 Alpha virt. eigenvalues --    0.98674   1.06154   1.09399   1.10696   1.24640

 Mulliken charges:
               1
     1  C    0.078329
     2  C   -0.445313
     3  H    0.230073
     4  H    0.232192
     5  H    0.259476
     6  O   -0.377083
     7  O   -0.373472
     8  H    0.395800
 Sum of Mulliken charges =   0.00000

 Dipole moment (field-independent basis, Debye):
    X=              3.4724    Y=              0.7168    Z=              0.9259  Tot=              3.6645
 Quadrupole moment (field-independent basis, Debye-Ang):
   XX=            -25.1410   YY=            -18.9494   ZZ=            -23.2530
   XY=              1.8994   XZ=              1.3479   YZ=              3.2022

 Normal termination of Gaussian 09 at Fri Apr 12 16:20:55 2019.
