 Gaussian 09, Revision D.01,
 Gaussian 09:  AS64L-G09RevD.01 24-Apr-2013

 --------------------------------------------------------------------
 #p hf 3-21g scf=tight NoSymmetry guess=read opt=(tight,modredundant)
 --------------------------------------------------------------------

 -----------------------------------
 Geometry optimization at the 2D-PES
 -----------------------------------
 Symbolic Z-matrix:
 Charge =  0 Multiplicity = 1

 SCF Done:  E(RHF) =  -226.390975232     A.U. after   12 cycles
 SCF Done:  E(RHF) =  -226.390996557     A.U. after   11 cycles
 SCF Done:  E(RHF) =  -226.391013784     A.U. after   10 cycles
 SCF Done:  E(RHF) =  -226.391013928     A.U. after    9 cycles
 SCF Done:  E(RHF) =  -226.391013952     A.U. after    8 cycles
 SCF Done:  E(RHF) =  -226.391013954     A.U. after    6 cycles
 Optimization completed.
    -- Stationary point found.

                          Input orientation:
 ---------------------------------------------------------------------
 Center     Atomic      Atomic             Coordinates (Angstroms)
 Number     Number       Type             X           Y           Z
 ---------------------------------------------------------------------
      1          6           0        0.740366    0.579637    0.071197
      2          6           0        1.424372   -0.531070   -0.036255
      3          1           0        1.186908    1.551772    0.089452
      4          1           0        2.493468   -0.499289   -0.068761
      5          1           0        0.962766   -1.496522   -0.043135
      6          8           0       -0.656445    0.703891    0.052563
      7          8           0       -1.284480   -0.382121    0.800491
      8          1           0       -1.407193   -1.057384    0.109991
 ---------------------------------------------------------------------

 Alpha  occ. eigenvalues --  -20.53770 -20.53030 -11.24855 -11.17511  -1.47965
 Alpha  occ. eigenvalues --   -1.23989  -1.04047  -0.79938  -0.71323  -0.68474
 Alpha  occ. eigenvalues --   -0.65652  -0.57291  -0.54526  -0.51482  -0.48588
 Alpha  occ. eigenvalues --   -0.37266
 Alpha virt. eigenvalues --    0.16747   0.23265   0.28573   0.29067   0.33600
 Alpha virt. eigenvalues --    0.36957   0.49871   0.57572   0.88376   0.96473
 Alpha virt. eigenvalues --    0.98774   1.06364   1.09527   1.11617   1.24884

 Mulliken charges:
               1
     1  C    0.147422
     2  C   -0.494429
     3  H    0.259438
     4  H    0.231681
     5  H    0.218097
     6  O   -0.403901
     7  O   -0.368128
     8  H    0.409820
 Sum of Mulliken charges =   0.00000

 Dipole moment (field-independent basis, Debye):
    X=              1.4780    Y=             -1.5258    Z=             -1.2154  Tot=              2.4473
 Quadrupole moment (field-independent basis, Debye-Ang):
   XX=            -22.2692   YY=            -20.2208   ZZ=            -26.9893
   XY=              3.8500   XZ=              1.8636   YZ=              0.7321

 Normal termination of Gaussian 09 at Fri Apr 12 17:15:25 2019.
