 Gaussian 09, Revision D.01,
 Gaussian 09:  AS64L-G09RevD.01 24-Apr-2013

 --------------------------------------------------------------------
 #p hf 3-21g scf=tight NoSymmetry guess=read opt=(tight,modredundant)
 --------------------------------------------------------------------

 -----------------------------------
 Geometry optimization at the 2D-PES
 -----------------------------------
 Symbolic Z-matrix:
 Charge =  0 Multiplicity = 1

 SCF Done:  E(RHF) =  -226.397408503     A.U. after   13 cycles
 SCF Done:  E(RHF) =  -226.397408996     A.U. after   10 cycles
 SCF Done:  E(RHF) =  -226.397409216     A.U. after    8 cycles
 SCF Done:  E(RHF) =  -226.397409226     A.U. after    7 cycles
 SCF Done:  E(RHF) =  -226.397409227     A.U. after    6 cycles
 Optimization completed.
    -- Stationary point found.

                          Input orientation:
 ---------------------------------------------------------------------
 Center     Atomic      Atomic             Coordinates (Angstroms)
 Number     Number       Type             X           Y           Z
 ---------------------------------------------------------------------
      1          6           0        0.731639    0.575963    0.051465
      2          6           0        1.413517   -0.536621   -0.043314
      3          1           0        1.170087    1.551724    0.092329
      4          1           0        2.483260   -0.504068   -0.056310
      5          1           0        0.932925   -1.489614   -0.082253
      6          8           0       -0.655250    0.712404    0.048403
      7          8           0       -1.258641   -0.575944    0.399247
      8          1           0       -2.194619   -0.319044    0.354112
 ---------------------------------------------------------------------

 Alpha  occ. eigenvalues --  -20.53632 -20.52568 -11.24076 -11.15753  -1.47600
 Alpha  occ. eigenvalues --   -1.23958  -1.02658  -0.78984  -0.71791  -0.64825
 Alpha  occ. eigenvalues --   -0.64447  -0.61197  -0.53620  -0.50977  -0.47791
 Alpha  occ. eigenvalues --   -0.35508
 Alpha virt. eigenvalues --    0.19356   0.23769   0.28689   0.30609   0.34129
 Alpha virt. eigenvalues --    0.37431   0.50292   0.58992   0.89411   0.97606
 Alpha virt. eigenvalues --    1.00629   1.07636   1.10773   1.12723   1.24194

 Mulliken charges:
               1
     1  C    0.156574
     2  C   -0.501665
     3  H    0.255947
     4  H    0.218653
     5  H    0.254322
     6  O   -0.423296
     7  O   -0.384507
     8  H    0.423972
 Sum of Mulliken charges =   0.00000

 Dipole moment (field-independent basis, Debye):
    X=             -0.4005    Y=              0.2995    Z=              0.0102  Tot=              0.5002
 Quadrupole moment (field-independent basis, Debye-Ang):
   XX=            -15.8838   YY=            -22.8567   ZZ=            -25.8786
   XY=              1.6216   XZ=             -0.5921   YZ=              0.4716

 Normal termination of Gaussian 09 at Fri Apr 12 17:37:24 2019.
