 Gaussian 09, Revision D.01,
 Gaussian 09:  AS64L-G09RevD.01 24-Apr-2013

 --------------------------------------------------------------------
 #p hf 3-21g scf=tight NoSymmetry guess=read opt=(tight,modredundant)
 --------------------------------------------------------------------

 -----------------------------------
 Geometry optimization at the 2D-PES
 -----------------------------------
 Symbolic Z-matrix:
 Charge =  0 Multiplicity = 1

 SCF Done:  E(RHF) =  -226.397638743     A.U. after   13 cycles
 SCF Done:  E(RHF) =  -226.397643793     A.U. after   11 cycles
 SCF Done:  E(RHF) =  -226.397651782     A.U. after   11 cycles
 SCF Done:  E(RHF) =  -226.397651855     A.U. after    9 cycles
 SCF Done:  E(RHF) =  -226.397651860     A.U. after    6 cycles
 Optimization completed.
    -- Stationary point found.

                          Input orientation:
 ---------------------------------------------------------------------
 Center     Atomic      Atomic             Coordinates (Angstroms)
 Number     Number       Type             X           Y           Z
 ---------------------------------------------------------------------
      1          6           0        0.734183    0.574011    0.051605
      2          6           0        1.418590   -0.536744   -0.045785
      3          1           0        1.170208    1.550568    0.095527
      4          1           0        2.488101   -0.502151   -0.062484
      5          1           0        0.939928   -1.490766   -0.074971
      6          8           0       -0.654895    0.710360    0.049587
      7          8           0       -1.267565   -0.571640    0.396329
      8          1           0       -2.016013   -0.566089   -0.223714
 ---------------------------------------------------------------------

 Alpha  occ. eigenvalues --  -20.53795 -20.52812 -11.24213 -11.15950  -1.47863
 Alpha  occ. eigenvalues --   -1.24028  -1.02889  -0.79137  -0.71199  -0.67514
 Alpha  occ. eigenvalues --   -0.64683  -0.58432  -0.53546  -0.51989  -0.48152
 Alpha  occ. eigenvalues --   -0.35761
 Alpha virt. eigenvalues --    0.19098   0.23723   0.28854   0.30251   0.33779
 Alpha virt. eigenvalues --    0.37391   0.50004   0.58777   0.89212   0.97184
 Alpha virt. eigenvalues --    1.01633   1.07431   1.10568   1.13053   1.22185

 Mulliken charges:
               1
     1  C    0.153172
     2  C   -0.502688
     3  H    0.257389
     4  H    0.219951
     5  H    0.248628
     6  O   -0.417593
     7  O   -0.379679
     8  H    0.420820
 Sum of Mulliken charges =   0.00000

 Dipole moment (field-independent basis, Debye):
    X=              0.0002    Y=             -0.2162    Z=             -1.2259  Tot=              1.2449
 Quadrupole moment (field-independent basis, Debye-Ang):
   XX=            -17.7140   YY=            -22.3824   ZZ=            -25.9607
   XY=              2.6671   XZ=              2.2852   YZ=              1.0173

 Normal termination of Gaussian 09 at Fri Apr 12 17:36:09 2019.
