 Gaussian 09, Revision D.01,
 Gaussian 09:  AS64L-G09RevD.01 24-Apr-2013

 --------------------------------------------------------------------
 #p hf 3-21g scf=tight NoSymmetry guess=read opt=(tight,modredundant)
 --------------------------------------------------------------------

 -----------------------------------
 Geometry optimization at the 2D-PES
 -----------------------------------
 Symbolic Z-matrix:
 Charge =  0 Multiplicity = 1

 SCF Done:  E(RHF) =  -226.389568550     A.U. after   12 cycles
 SCF Done:  E(RHF) =  -226.389582005     A.U. after   12 cycles
 SCF Done:  E(RHF) =  -226.389590627     A.U. after   10 cycles
 SCF Done:  E(RHF) =  -226.389590707     A.U. after    9 cycles
 SCF Done:  E(RHF) =  -226.389590719     A.U. after    7 cycles
 SCF Done:  E(RHF) =  -226.389590720     A.U. after    7 cycles
 Optimization completed.
    -- Stationary point found.

                          Input orientation:
 ---------------------------------------------------------------------
 Center     Atomic      Atomic             Coordinates (Angstroms)
 Number     Number       Type             X           Y           Z
 ---------------------------------------------------------------------
      1          6           0        0.740156    0.627181    0.048896
      2          6           0        1.377685   -0.513187    0.001767
      3          1           0        1.219997    1.583496    0.110972
      4          1           0        2.448042   -0.545813   -0.005948
      5          1           0        0.839645   -1.437673   -0.045652
      6          8           0       -0.667500    0.675002   -0.019395
      7          8           0       -1.166578    1.076259    1.304131
      8          1           0       -1.038364    2.042541    1.289548
 ---------------------------------------------------------------------

 Alpha  occ. eigenvalues --  -20.52996 -20.52148 -11.24275 -11.18153  -1.46909
 Alpha  occ. eigenvalues --   -1.23299  -1.03673  -0.80472  -0.69321  -0.69101
 Alpha  occ. eigenvalues --   -0.63683  -0.57485  -0.56574  -0.48271  -0.47487
 Alpha  occ. eigenvalues --   -0.38541
 Alpha virt. eigenvalues --    0.15513   0.25610   0.27471   0.30864   0.32788
 Alpha virt. eigenvalues --    0.35587   0.49328   0.56357   0.88545   0.96789
 Alpha virt. eigenvalues --    0.98529   1.06277   1.09777   1.11206   1.25375

 Mulliken charges:
               1
     1  C    0.119258
     2  C   -0.453778
     3  H    0.222557
     4  H    0.228363
     5  H    0.254321
     6  O   -0.392466
     7  O   -0.377556
     8  H    0.399301
 Sum of Mulliken charges =   0.00000

 Dipole moment (field-independent basis, Debye):
    X=              2.2776    Y=              1.6727    Z=              0.2009  Tot=              2.8329
 Quadrupole moment (field-independent basis, Debye-Ang):
   XX=            -23.5431   YY=            -15.6753   ZZ=            -25.7990
   XY=             -0.9060   XZ=              0.2620   YZ=              2.9651

 Normal termination of Gaussian 09 at Fri Apr 12 16:22:31 2019.
