 Gaussian 09, Revision D.01,
 Gaussian 09:  AS64L-G09RevD.01 24-Apr-2013

 --------------------------------------------------------------------
 #p hf 3-21g scf=tight NoSymmetry guess=read opt=(tight,modredundant)
 --------------------------------------------------------------------

 -----------------------------------
 Geometry optimization at the 2D-PES
 -----------------------------------
 Symbolic Z-matrix:
 Charge =  0 Multiplicity = 1

 SCF Done:  E(RHF) =  -226.381536661     A.U. after   13 cycles
 SCF Done:  E(RHF) =  -226.381541100     A.U. after   12 cycles
 SCF Done:  E(RHF) =  -226.381547478     A.U. after   11 cycles
 SCF Done:  E(RHF) =  -226.381547496     A.U. after    9 cycles
 SCF Done:  E(RHF) =  -226.381547497     A.U. after    6 cycles
 Optimization completed.
    -- Stationary point found.

                          Input orientation:
 ---------------------------------------------------------------------
 Center     Atomic      Atomic             Coordinates (Angstroms)
 Number     Number       Type             X           Y           Z
 ---------------------------------------------------------------------
      1          6           0        0.759720    0.625230    0.051413
      2          6           0        1.387903   -0.521174   -0.000981
      3          1           0        1.251910    1.578745    0.075371
      4          1           0        2.457502   -0.560837   -0.034061
      5          1           0        0.842345   -1.441966   -0.032966
      6          8           0       -0.643854    0.684913   -0.011014
      7          8           0       -1.186099    1.311093    1.212067
      8          1           0       -0.437082    1.806056    1.593021
 ---------------------------------------------------------------------

 Alpha  occ. eigenvalues --  -20.53261 -20.52169 -11.25134 -11.19028  -1.46753
 Alpha  occ. eigenvalues --   -1.23768  -1.04501  -0.81682  -0.71138  -0.68070
 Alpha  occ. eigenvalues --   -0.61159  -0.59046  -0.56777  -0.52072  -0.45664
 Alpha  occ. eigenvalues --   -0.38727
 Alpha virt. eigenvalues --    0.14356   0.25733   0.26369   0.30111   0.32466
 Alpha virt. eigenvalues --    0.35253   0.49520   0.55690   0.87835   0.95985
 Alpha virt. eigenvalues --    0.98815   1.06086   1.09401   1.10891   1.24243

 Mulliken charges:
               1
     1  C    0.082584
     2  C   -0.452551
     3  H    0.230633
     4  H    0.232538
     5  H    0.258593
     6  O   -0.375784
     7  O   -0.372790
     8  H    0.396777
 Sum of Mulliken charges =   0.00000

 Dipole moment (field-independent basis, Debye):
    X=              3.5420    Y=              0.6354    Z=              0.8989  Tot=              3.7091
 Quadrupole moment (field-independent basis, Debye-Ang):
   XX=            -25.2221   YY=            -18.9441   ZZ=            -23.4459
   XY=              2.5287   XZ=              1.3755   YZ=              2.9995

 Normal termination of Gaussian 09 at Fri Apr 12 16:19:33 2019.
