 Gaussian 09, Revision D.01,
 Gaussian 09:  AS64L-G09RevD.01 24-Apr-2013

 --------------------------------------------------------------------
 #p hf 3-21g scf=tight NoSymmetry guess=read opt=(tight,modredundant)
 --------------------------------------------------------------------

 -----------------------------------
 Geometry optimization at the 2D-PES
 -----------------------------------
 Symbolic Z-matrix:
 Charge =  0 Multiplicity = 1

 SCF Done:  E(RHF) =  -226.384007386     A.U. after   13 cycles
 SCF Done:  E(RHF) =  -226.384015773     A.U. after   12 cycles
 SCF Done:  E(RHF) =  -226.384025431     A.U. after   11 cycles
 SCF Done:  E(RHF) =  -226.384025536     A.U. after    9 cycles
 SCF Done:  E(RHF) =  -226.384025543     A.U. after    8 cycles
 SCF Done:  E(RHF) =  -226.384025545     A.U. after    7 cycles
 Optimization completed.
    -- Stationary point found.

                          Input orientation:
 ---------------------------------------------------------------------
 Center     Atomic      Atomic             Coordinates (Angstroms)
 Number     Number       Type             X           Y           Z
 ---------------------------------------------------------------------
      1          6           0        0.732406    0.623354    0.036907
      2          6           0        1.388928   -0.510496   -0.009100
      3          1           0        1.198337    1.585604    0.069919
      4          1           0        2.459502   -0.523673    0.000646
      5          1           0        0.877081   -1.453242   -0.020994
      6          8           0       -0.678700    0.661994    0.031979
      7          8           0       -1.169887    0.493339   -1.349625
      8          1           0       -0.574673   -0.187487   -1.714915
 ---------------------------------------------------------------------

 Alpha  occ. eigenvalues --  -20.52906 -20.52126 -11.25345 -11.19588  -1.46732
 Alpha  occ. eigenvalues --   -1.23375  -1.05162  -0.80871  -0.72624  -0.66755
 Alpha  occ. eigenvalues --   -0.62413  -0.59577  -0.56254  -0.51726  -0.45015
 Alpha  occ. eigenvalues --   -0.39883
 Alpha virt. eigenvalues --    0.13945   0.24771   0.27849   0.29985   0.30778
 Alpha virt. eigenvalues --    0.36225   0.49426   0.54922   0.87525   0.96001
 Alpha virt. eigenvalues --    0.98930   1.04871   1.08277   1.10785   1.23624

 Mulliken charges:
               1
     1  C    0.100105
     2  C   -0.475450
     3  H    0.250763
     4  H    0.239046
     5  H    0.244475
     6  O   -0.385284
     7  O   -0.371435
     8  H    0.397779
 Sum of Mulliken charges =   0.00000

 Dipole moment (field-independent basis, Debye):
    X=              3.2823    Y=             -1.5304    Z=             -0.8532  Tot=              3.7207
 Quadrupole moment (field-independent basis, Debye-Ang):
   XX=            -24.9547   YY=            -22.4178   ZZ=            -23.2713
   XY=              2.5544   XZ=             -0.9711   YZ=              2.1229

 Normal termination of Gaussian 09 at Fri Apr 12 15:02:43 2019.
