 Gaussian 09, Revision D.01,
 Gaussian 09:  AS64L-G09RevD.01 24-Apr-2013

 --------------------------------------------------------------------
 #p hf 3-21g scf=tight NoSymmetry guess=read opt=(tight,modredundant)
 --------------------------------------------------------------------

 -----------------------------------
 Geometry optimization at the 2D-PES
 -----------------------------------
 Symbolic Z-matrix:
 Charge =  0 Multiplicity = 1

 SCF Done:  E(RHF) =  -226.387013323     A.U. after   13 cycles
 SCF Done:  E(RHF) =  -226.387031314     A.U. after   13 cycles
 SCF Done:  E(RHF) =  -226.387052727     A.U. after   12 cycles
 SCF Done:  E(RHF) =  -226.387052873     A.U. after    9 cycles
 SCF Done:  E(RHF) =  -226.387052901     A.U. after    9 cycles
 SCF Done:  E(RHF) =  -226.387052902     A.U. after    6 cycles
 Optimization completed.
    -- Stationary point found.

                          Input orientation:
 ---------------------------------------------------------------------
 Center     Atomic      Atomic             Coordinates (Angstroms)
 Number     Number       Type             X           Y           Z
 ---------------------------------------------------------------------
      1          6           0        0.747455    0.634680    0.032783
      2          6           0        1.377062   -0.511663   -0.010290
      3          1           0        1.230398    1.586050    0.114518
      4          1           0        2.446721   -0.541766    0.003329
      5          1           0        0.843865   -1.438977   -0.058740
      6          8           0       -0.656653    0.686009    0.027312
      7          8           0       -1.097217    2.078080    0.081360
      8          1           0       -0.707024    2.465851   -0.723924
 ---------------------------------------------------------------------

 Alpha  occ. eigenvalues --  -20.54146 -20.53434 -11.25236 -11.17283  -1.48411
 Alpha  occ. eigenvalues --   -1.24351  -1.03712  -0.81134  -0.72065  -0.66663
 Alpha  occ. eigenvalues --   -0.65393  -0.57590  -0.54671  -0.53400  -0.48791
 Alpha  occ. eigenvalues --   -0.36639
 Alpha virt. eigenvalues --    0.17947   0.22044   0.25870   0.31414   0.33615
 Alpha virt. eigenvalues --    0.35434   0.49852   0.56795   0.89166   0.96451
 Alpha virt. eigenvalues --    0.99142   1.06165   1.10044   1.10817   1.24647

 Mulliken charges:
               1
     1  C    0.129235
     2  C   -0.499180
     3  H    0.244872
     4  H    0.229605
     5  H    0.246527
     6  O   -0.388093
     7  O   -0.365176
     8  H    0.402210
 Sum of Mulliken charges =   0.00000

 Dipole moment (field-independent basis, Debye):
    X=              2.5494    Y=              1.0374    Z=             -1.6070  Tot=              3.1872
 Quadrupole moment (field-independent basis, Debye-Ang):
   XX=            -24.5685   YY=            -17.9907   ZZ=            -24.5774
   XY=              2.2673   XZ=              1.3984   YZ=             -3.9926

 Normal termination of Gaussian 09 at Fri Apr 12 15:41:16 2019.
