 Gaussian 09, Revision D.01,
 Gaussian 09:  AS64L-G09RevD.01 24-Apr-2013

 --------------------------------------------------------------------
 #p hf 3-21g scf=tight NoSymmetry guess=read opt=(tight,modredundant)
 --------------------------------------------------------------------

 -----------------------------------
 Geometry optimization at the 2D-PES
 -----------------------------------
 Symbolic Z-matrix:
 Charge =  0 Multiplicity = 1

 SCF Done:  E(RHF) =  -226.395732649     A.U. after   13 cycles
 SCF Done:  E(RHF) =  -226.395736169     A.U. after   11 cycles
 SCF Done:  E(RHF) =  -226.395739090     A.U. after   10 cycles
 SCF Done:  E(RHF) =  -226.395739131     A.U. after    8 cycles
 SCF Done:  E(RHF) =  -226.395739134     A.U. after    7 cycles
 Optimization completed.
    -- Stationary point found.

                          Input orientation:
 ---------------------------------------------------------------------
 Center     Atomic      Atomic             Coordinates (Angstroms)
 Number     Number       Type             X           Y           Z
 ---------------------------------------------------------------------
      1          6           0        0.722902    0.637506    0.025112
      2          6           0        1.366751   -0.501712   -0.019556
      3          1           0        1.179534    1.601240    0.080619
      4          1           0        2.436168   -0.518750    0.017357
      5          1           0        0.847747   -1.436456   -0.080217
      6          8           0       -0.676706    0.670833    0.051411
      7          8           0       -1.067056    2.015961   -0.384088
      8          1           0       -1.833435    1.793683   -0.938701
 ---------------------------------------------------------------------

 Alpha  occ. eigenvalues --  -20.53585 -20.52694 -11.24284 -11.16452  -1.47719
 Alpha  occ. eigenvalues --   -1.24030  -1.02721  -0.79788  -0.71122  -0.66781
 Alpha  occ. eigenvalues --   -0.63386  -0.60453  -0.55333  -0.49993  -0.48428
 Alpha  occ. eigenvalues --   -0.36050
 Alpha virt. eigenvalues --    0.18876   0.23278   0.27667   0.31990   0.33923
 Alpha virt. eigenvalues --    0.35984   0.49924   0.57655   0.90308   0.97188
 Alpha virt. eigenvalues --    1.00208   1.06867   1.10907   1.12790   1.22115

 Mulliken charges:
               1
     1  C    0.165855
     2  C   -0.507941
     3  H    0.262623
     4  H    0.226454
     5  H    0.236565
     6  O   -0.416587
     7  O   -0.388122
     8  H    0.421152
 Sum of Mulliken charges =   0.00000

 Dipole moment (field-independent basis, Debye):
    X=              0.1015    Y=             -0.0444    Z=             -1.2963  Tot=              1.3010
 Quadrupole moment (field-independent basis, Debye-Ang):
   XX=            -18.2295   YY=            -23.4580   ZZ=            -24.0760
   XY=             -1.1720   XZ=              3.3463   YZ=             -1.9301

 Normal termination of Gaussian 09 at Fri Apr 12 15:30:11 2019.
