 Gaussian 09, Revision D.01,
 Gaussian 09:  AS64L-G09RevD.01 24-Apr-2013

 --------------------------------------------------------------------
 #p hf 3-21g scf=tight NoSymmetry guess=read opt=(tight,modredundant)
 --------------------------------------------------------------------

 -----------------------------------
 Geometry optimization at the 2D-PES
 -----------------------------------
 Symbolic Z-matrix:
 Charge =  0 Multiplicity = 1

 SCF Done:  E(RHF) =  -226.384447346     A.U. after   13 cycles
 SCF Done:  E(RHF) =  -226.384464865     A.U. after   13 cycles
 SCF Done:  E(RHF) =  -226.384493064     A.U. after   12 cycles
 SCF Done:  E(RHF) =  -226.384493306     A.U. after   10 cycles
 SCF Done:  E(RHF) =  -226.384493375     A.U. after    9 cycles
 SCF Done:  E(RHF) =  -226.384493378     A.U. after    6 cycles
 Optimization completed.
    -- Stationary point found.

                          Input orientation:
 ---------------------------------------------------------------------
 Center     Atomic      Atomic             Coordinates (Angstroms)
 Number     Number       Type             X           Y           Z
 ---------------------------------------------------------------------
      1          6           0        0.748848    0.590044    0.040559
      2          6           0        1.427102   -0.530519   -0.033334
      3          1           0        1.195355    1.561820    0.067567
      4          1           0        2.496903   -0.514158   -0.034744
      5          1           0        0.941806   -1.482830   -0.110469
      6          8           0       -0.647230    0.691725    0.039556
      7          8           0       -1.278048   -0.367087    0.840114
      8          1           0       -0.559803   -0.674049    1.426378
 ---------------------------------------------------------------------

 Alpha  occ. eigenvalues --  -20.53854 -20.52822 -11.25955 -11.18722  -1.47746
 Alpha  occ. eigenvalues --   -1.24154  -1.05230  -0.81252  -0.72286  -0.68318
 Alpha  occ. eigenvalues --   -0.62733  -0.58631  -0.56198  -0.53336  -0.47193
 Alpha  occ. eigenvalues --   -0.38047
 Alpha virt. eigenvalues --    0.15495   0.23979   0.27730   0.28876   0.31194
 Alpha virt. eigenvalues --    0.36672   0.49783   0.56363   0.87459   0.96118
 Alpha virt. eigenvalues --    0.99949   1.04775   1.08176   1.11108   1.23239

 Mulliken charges:
               1
     1  C    0.112098
     2  C   -0.512302
     3  H    0.264655
     4  H    0.237064
     5  H    0.245378
     6  O   -0.385124
     7  O   -0.365832
     8  H    0.404063
 Sum of Mulliken charges =   0.00000

 Dipole moment (field-independent basis, Debye):
    X=              3.2780    Y=             -0.7363    Z=              1.2611  Tot=              3.5885
 Quadrupole moment (field-independent basis, Debye-Ang):
   XX=            -25.6061   YY=            -21.5363   ZZ=            -22.8419
   XY=              1.3103   XZ=              0.4820   YZ=             -1.1753

 Normal termination of Gaussian 09 at Fri Apr 12 17:21:37 2019.
