 Gaussian 09, Revision D.01,
 Gaussian 09:  AS64L-G09RevD.01 24-Apr-2013

 --------------------------------------------------------------------
 #p hf 3-21g scf=tight NoSymmetry guess=read opt=(tight,modredundant)
 --------------------------------------------------------------------

 -----------------------------------
 Geometry optimization at the 2D-PES
 -----------------------------------
 Symbolic Z-matrix:
 Charge =  0 Multiplicity = 1

 SCF Done:  E(RHF) =  -226.382482053     A.U. after   13 cycles
 SCF Done:  E(RHF) =  -226.382491885     A.U. after   12 cycles
 SCF Done:  E(RHF) =  -226.382500229     A.U. after   11 cycles
 SCF Done:  E(RHF) =  -226.382500374     A.U. after   10 cycles
 SCF Done:  E(RHF) =  -226.382500397     A.U. after    9 cycles
 SCF Done:  E(RHF) =  -226.382500398     A.U. after    6 cycles
 Optimization completed.
    -- Stationary point found.

                          Input orientation:
 ---------------------------------------------------------------------
 Center     Atomic      Atomic             Coordinates (Angstroms)
 Number     Number       Type             X           Y           Z
 ---------------------------------------------------------------------
      1          6           0        0.750828    0.605517    0.041063
      2          6           0        1.410282   -0.525446   -0.024482
      3          1           0        1.212863    1.570432    0.070038
      4          1           0        2.480903   -0.532923   -0.024316
      5          1           0        0.898138   -1.465281   -0.080695
      6          8           0       -0.655332    0.685676    0.021458
      7          8           0       -1.243732   -0.051672    1.156659
      8          1           0       -0.507550   -0.124595    1.793201
 ---------------------------------------------------------------------

 Alpha  occ. eigenvalues --  -20.53018 -20.52222 -11.25327 -11.19217  -1.46758
 Alpha  occ. eigenvalues --   -1.23506  -1.05054  -0.81163  -0.71477  -0.68235
 Alpha  occ. eigenvalues --   -0.60932  -0.58966  -0.57094  -0.52451  -0.45489
 Alpha  occ. eigenvalues --   -0.38878
 Alpha virt. eigenvalues --    0.14157   0.25793   0.27685   0.28759   0.30736
 Alpha virt. eigenvalues --    0.36682   0.49818   0.55343   0.87291   0.96681
 Alpha virt. eigenvalues --    0.98150   1.04653   1.08345   1.10872   1.23555

 Mulliken charges:
               1
     1  C    0.078505
     2  C   -0.470754
     3  H    0.253555
     4  H    0.235655
     5  H    0.256325
     6  O   -0.382105
     7  O   -0.370261
     8  H    0.399080
 Sum of Mulliken charges =   0.00000

 Dipole moment (field-independent basis, Debye):
    X=              3.5076    Y=             -0.4641    Z=              1.4053  Tot=              3.8070
 Quadrupole moment (field-independent basis, Debye-Ang):
   XX=            -25.4158   YY=            -22.1827   ZZ=            -21.6005
   XY=              1.1990   XZ=              1.0084   YZ=             -0.0974

 Normal termination of Gaussian 09 at Fri Apr 12 17:04:40 2019.
