 Gaussian 09, Revision D.01,
 Gaussian 09:  AS64L-G09RevD.01 24-Apr-2013

 --------------------------------------------------------------------
 #p hf 3-21g scf=tight NoSymmetry guess=read opt=(tight,modredundant)
 --------------------------------------------------------------------

 -----------------------------------
 Geometry optimization at the 2D-PES
 -----------------------------------
 Symbolic Z-matrix:
 Charge =  0 Multiplicity = 1

 SCF Done:  E(RHF) =  -226.382341704     A.U. after   12 cycles
 SCF Done:  E(RHF) =  -226.382356188     A.U. after   13 cycles
 SCF Done:  E(RHF) =  -226.382454318     A.U. after   12 cycles
 SCF Done:  E(RHF) =  -226.382455044     A.U. after   11 cycles
 SCF Done:  E(RHF) =  -226.382455054     A.U. after    8 cycles
 SCF Done:  E(RHF) =  -226.382455058     A.U. after    6 cycles
 Optimization completed.
    -- Stationary point found.

                          Input orientation:
 ---------------------------------------------------------------------
 Center     Atomic      Atomic             Coordinates (Angstroms)
 Number     Number       Type             X           Y           Z
 ---------------------------------------------------------------------
      1          6           0        0.752254    0.551153    0.052689
      2          6           0        1.483805   -0.532971   -0.045784
      3          1           0        1.176277    1.532151    0.103480
      4          1           0        2.549277   -0.440497   -0.060593
      5          1           0        1.103396   -1.533095   -0.088125
      6          8           0       -0.628870    0.694280    0.049668
      7          8           0       -1.392286   -0.547031    0.146795
      8          1           0       -0.778722   -1.249383   -0.125292
 ---------------------------------------------------------------------

 Alpha  occ. eigenvalues --  -20.54954 -20.53443 -11.26623 -11.18303  -1.48780
 Alpha  occ. eigenvalues --   -1.25248  -1.05426  -0.81562  -0.73613  -0.68215
 Alpha  occ. eigenvalues --   -0.64831  -0.58549  -0.54687  -0.54043  -0.49392
 Alpha  occ. eigenvalues --   -0.37320
 Alpha virt. eigenvalues --    0.18051   0.20696   0.26597   0.27299   0.36201
 Alpha virt. eigenvalues --    0.37030   0.49309   0.60987   0.88022   0.95204
 Alpha virt. eigenvalues --    1.01301   1.05347   1.07742   1.10732   1.24099

 Mulliken charges:
               1
     1  C    0.151370
     2  C   -0.538625
     3  H    0.274974
     4  H    0.242927
     5  H    0.204945
     6  O   -0.390193
     7  O   -0.362600
     8  H    0.417203
 Sum of Mulliken charges =   0.00000

 Dipole moment (field-independent basis, Debye):
    X=              2.8201    Y=             -1.3266    Z=             -0.4811  Tot=              3.1534
 Quadrupole moment (field-independent basis, Debye-Ang):
   XX=            -25.6926   YY=            -19.5838   ZZ=            -25.8715
   XY=              2.2727   XZ=              0.6959   YZ=              0.7762

 Normal termination of Gaussian 09 at Fri Apr 12 17:54:07 2019.
