 Gaussian 09, Revision D.01,
 Gaussian 09:  AS64L-G09RevD.01 24-Apr-2013

 --------------------------------------------------------------------
 #p hf 3-21g scf=tight NoSymmetry guess=read opt=(tight,modredundant)
 --------------------------------------------------------------------

 -----------------------------------
 Geometry optimization at the 2D-PES
 -----------------------------------
 Symbolic Z-matrix:
 Charge =  0 Multiplicity = 1

 SCF Done:  E(RHF) =  -226.396257749     A.U. after   13 cycles
 SCF Done:  E(RHF) =  -226.396259031     A.U. after   10 cycles
 SCF Done:  E(RHF) =  -226.396259595     A.U. after   10 cycles
 SCF Done:  E(RHF) =  -226.396259622     A.U. after    7 cycles
 SCF Done:  E(RHF) =  -226.396259623     A.U. after    6 cycles
 Optimization completed.
    -- Stationary point found.

                          Input orientation:
 ---------------------------------------------------------------------
 Center     Atomic      Atomic             Coordinates (Angstroms)
 Number     Number       Type             X           Y           Z
 ---------------------------------------------------------------------
      1          6           0        0.724827    0.634303    0.055301
      2          6           0        1.367145   -0.505113    0.002012
      3          1           0        1.182100    1.597854    0.116665
      4          1           0        2.437106   -0.523200   -0.013274
      5          1           0        0.843803   -1.438290   -0.040136
      6          8           0       -0.671180    0.673538   -0.018561
      7          8           0       -1.078667    1.851319    0.761455
      8          1           0       -2.017462    1.883711    0.513453
 ---------------------------------------------------------------------

 Alpha  occ. eigenvalues --  -20.53362 -20.52408 -11.24117 -11.16533  -1.47364
 Alpha  occ. eigenvalues --   -1.23909  -1.02633  -0.79674  -0.70006  -0.67778
 Alpha  occ. eigenvalues --   -0.64256  -0.58387  -0.55540  -0.51144  -0.47332
 Alpha  occ. eigenvalues --   -0.36040
 Alpha virt. eigenvalues --    0.18137   0.24460   0.28079   0.32067   0.33431
 Alpha virt. eigenvalues --    0.36134   0.49966   0.57616   0.90237   0.97395
 Alpha virt. eigenvalues --    1.00224   1.06998   1.10903   1.12265   1.23556

 Mulliken charges:
               1
     1  C    0.170580
     2  C   -0.500815
     3  H    0.257024
     4  H    0.225919
     5  H    0.238633
     6  O   -0.421169
     7  O   -0.391819
     8  H    0.421648
 Sum of Mulliken charges =   0.00000

 Dipole moment (field-independent basis, Debye):
    X=             -0.2298    Y=              0.3823    Z=             -0.3197  Tot=              0.5488
 Quadrupole moment (field-independent basis, Debye-Ang):
   XX=            -16.5713   YY=            -21.4482   ZZ=            -26.4540
   XY=             -2.7380   XZ=             -0.5626   YZ=             -0.5804

 Normal termination of Gaussian 09 at Fri Apr 12 15:59:40 2019.
