 Gaussian 09, Revision D.01,
 Gaussian 09:  AS64L-G09RevD.01 24-Apr-2013

 --------------------------------------------------------------------
 #p hf 3-21g scf=tight NoSymmetry guess=read opt=(tight,modredundant)
 --------------------------------------------------------------------

 -----------------------------------
 Geometry optimization at the 2D-PES
 -----------------------------------
 Symbolic Z-matrix:
 Charge =  0 Multiplicity = 1

 SCF Done:  E(RHF) =  -226.392350624     A.U. after   13 cycles
 SCF Done:  E(RHF) =  -226.392355730     A.U. after   11 cycles
 SCF Done:  E(RHF) =  -226.392360682     A.U. after   10 cycles
 SCF Done:  E(RHF) =  -226.392360703     A.U. after    8 cycles
 SCF Done:  E(RHF) =  -226.392360712     A.U. after    7 cycles
 Optimization completed.
    -- Stationary point found.

                          Input orientation:
 ---------------------------------------------------------------------
 Center     Atomic      Atomic             Coordinates (Angstroms)
 Number     Number       Type             X           Y           Z
 ---------------------------------------------------------------------
      1          6           0        0.722638    0.633993    0.030507
      2          6           0        1.371063   -0.501928   -0.023896
      3          1           0        1.181470    1.598708    0.055542
      4          1           0        2.441420   -0.523331   -0.002328
      5          1           0        0.849037   -1.437195   -0.057769
      6          8           0       -0.687878    0.657323    0.052536
      7          8           0       -1.110038    1.198962   -1.248323
      8          1           0       -1.184166    0.383518   -1.775963
 ---------------------------------------------------------------------

 Alpha  occ. eigenvalues --  -20.53047 -20.52166 -11.24430 -11.18391  -1.47078
 Alpha  occ. eigenvalues --   -1.23298  -1.03939  -0.79985  -0.72058  -0.65616
 Alpha  occ. eigenvalues --   -0.63826  -0.60386  -0.56006  -0.48162  -0.46975
 Alpha  occ. eigenvalues --   -0.39099
 Alpha virt. eigenvalues --    0.15604   0.25675   0.27996   0.30779   0.31889
 Alpha virt. eigenvalues --    0.35814   0.48890   0.56158   0.88574   0.96454
 Alpha virt. eigenvalues --    0.98286   1.06405   1.09533   1.11403   1.24102

 Mulliken charges:
               1
     1  C    0.126277
     2  C   -0.472133
     3  H    0.248184
     4  H    0.232117
     5  H    0.239682
     6  O   -0.396383
     7  O   -0.382618
     8  H    0.404874
 Sum of Mulliken charges =   0.00000

 Dipole moment (field-independent basis, Debye):
    X=              1.8519    Y=             -1.7195    Z=             -1.2681  Tot=              2.8274
 Quadrupole moment (field-independent basis, Debye-Ang):
   XX=            -22.6927   YY=            -24.6138   ZZ=            -22.2110
   XY=              3.1029   XZ=              1.8636   YZ=              1.8615

 Normal termination of Gaussian 09 at Fri Apr 12 15:13:09 2019.
