 Gaussian 09, Revision D.01,
 Gaussian 09:  AS64L-G09RevD.01 24-Apr-2013

 --------------------------------------------------------------------
 #p hf 3-21g scf=tight NoSymmetry guess=read opt=(tight,modredundant)
 --------------------------------------------------------------------

 -----------------------------------
 Geometry optimization at the 2D-PES
 -----------------------------------
 Symbolic Z-matrix:
 Charge =  0 Multiplicity = 1

 SCF Done:  E(RHF) =  -226.391202792     A.U. after   13 cycles
 SCF Done:  E(RHF) =  -226.391209258     A.U. after   12 cycles
 SCF Done:  E(RHF) =  -226.391215838     A.U. after   10 cycles
 SCF Done:  E(RHF) =  -226.391215866     A.U. after    9 cycles
 SCF Done:  E(RHF) =  -226.391215875     A.U. after    8 cycles
 Optimization completed.
    -- Stationary point found.

                          Input orientation:
 ---------------------------------------------------------------------
 Center     Atomic      Atomic             Coordinates (Angstroms)
 Number     Number       Type             X           Y           Z
 ---------------------------------------------------------------------
      1          6           0        0.729264    0.636588    0.026889
      2          6           0        1.372937   -0.502565   -0.022641
      3          1           0        1.188396    1.601229    0.062294
      4          1           0        2.442898   -0.528406    0.009426
      5          1           0        0.845336   -1.434190   -0.063660
      6          8           0       -0.679741    0.658820    0.050524
      7          8           0       -1.110973    1.410592   -1.136593
      8          1           0       -0.878995    0.799416   -1.860508
 ---------------------------------------------------------------------

 Alpha  occ. eigenvalues --  -20.53348 -20.52366 -11.24682 -11.18585  -1.47377
 Alpha  occ. eigenvalues --   -1.23508  -1.04158  -0.80407  -0.72490  -0.65649
 Alpha  occ. eigenvalues --   -0.63608  -0.60231  -0.55941  -0.49868  -0.46600
 Alpha  occ. eigenvalues --   -0.38990
 Alpha virt. eigenvalues --    0.15544   0.25680   0.27389   0.30594   0.31816
 Alpha virt. eigenvalues --    0.35677   0.48714   0.56073   0.88539   0.96458
 Alpha virt. eigenvalues --    0.98357   1.06061   1.09398   1.10597   1.24348

 Mulliken charges:
               1
     1  C    0.108716
     2  C   -0.473128
     3  H    0.250904
     4  H    0.232807
     5  H    0.245641
     6  O   -0.387169
     7  O   -0.379376
     8  H    0.401605
 Sum of Mulliken charges =   0.00000

 Dipole moment (field-independent basis, Debye):
    X=              2.4540    Y=             -1.2884    Z=             -1.6061  Tot=              3.2034
 Quadrupole moment (field-independent basis, Debye-Ang):
   XX=            -24.0014   YY=            -24.7487   ZZ=            -20.9906
   XY=              2.9514   XZ=              1.1069   YZ=              0.4036

 Normal termination of Gaussian 09 at Fri Apr 12 15:15:08 2019.
