 Gaussian 09, Revision D.01,
 Gaussian 09:  AS64L-G09RevD.01 24-Apr-2013

 --------------------------------------------------------------------
 #p hf 3-21g scf=tight NoSymmetry guess=read opt=(tight,modredundant)
 --------------------------------------------------------------------

 -----------------------------------
 Geometry optimization at the 2D-PES
 -----------------------------------
 Symbolic Z-matrix:
 Charge =  0 Multiplicity = 1

 SCF Done:  E(RHF) =  -226.392067742     A.U. after   13 cycles
 SCF Done:  E(RHF) =  -226.392073605     A.U. after   11 cycles
 SCF Done:  E(RHF) =  -226.392077959     A.U. after   10 cycles
 SCF Done:  E(RHF) =  -226.392077999     A.U. after    8 cycles
 SCF Done:  E(RHF) =  -226.392078005     A.U. after    8 cycles
 SCF Done:  E(RHF) =  -226.392078005     A.U. after    6 cycles
 Optimization completed.
    -- Stationary point found.

                          Input orientation:
 ---------------------------------------------------------------------
 Center     Atomic      Atomic             Coordinates (Angstroms)
 Number     Number       Type             X           Y           Z
 ---------------------------------------------------------------------
      1          6           0        0.740271    0.595971    0.061547
      2          6           0        1.402674   -0.528041   -0.025479
      3          1           0        1.198098    1.563732    0.085126
      4          1           0        2.473326   -0.525140   -0.037751
      5          1           0        0.897431   -1.471056   -0.051962
      6          8           0       -0.663907    0.701558    0.030948
      7          8           0       -1.239749   -0.246033    0.991167
      8          1           0       -1.576474    0.368752    1.665870
 ---------------------------------------------------------------------

 Alpha  occ. eigenvalues --  -20.52878 -20.52196 -11.23889 -11.17052  -1.46920
 Alpha  occ. eigenvalues --   -1.23196  -1.03204  -0.79545  -0.70466  -0.66836
 Alpha  occ. eigenvalues --   -0.62370  -0.61126  -0.55194  -0.48435  -0.47205
 Alpha  occ. eigenvalues --   -0.37253
 Alpha virt. eigenvalues --    0.16478   0.25444   0.29149   0.30152   0.32711
 Alpha virt. eigenvalues --    0.37074   0.49949   0.57403   0.88598   0.96968
 Alpha virt. eigenvalues --    0.99926   1.06701   1.10271   1.12606   1.23015

 Mulliken charges:
               1
     1  C    0.122932
     2  C   -0.467732
     3  H    0.244530
     4  H    0.223712
     5  H    0.254791
     6  O   -0.408876
     7  O   -0.381674
     8  H    0.412317
 Sum of Mulliken charges =   0.00000

 Dipole moment (field-independent basis, Debye):
    X=              1.1775    Y=              0.9185    Z=              1.6704  Tot=              2.2406
 Quadrupole moment (field-independent basis, Debye-Ang):
   XX=            -20.9763   YY=            -22.1515   ZZ=            -21.6231
   XY=             -0.6640   XZ=             -3.2293   YZ=              2.2066

 Normal termination of Gaussian 09 at Fri Apr 12 17:08:41 2019.
