 Gaussian 09, Revision D.01,
 Gaussian 09:  AS64L-G09RevD.01 24-Apr-2013

 --------------------------------------------------------------------
 #p hf 3-21g scf=tight NoSymmetry guess=read opt=(tight,modredundant)
 --------------------------------------------------------------------

 -----------------------------------
 Geometry optimization at the 2D-PES
 -----------------------------------
 Symbolic Z-matrix:
 Charge =  0 Multiplicity = 1

 SCF Done:  E(RHF) =  -226.391427345     A.U. after   12 cycles
 SCF Done:  E(RHF) =  -226.391440256     A.U. after   11 cycles
 SCF Done:  E(RHF) =  -226.391447251     A.U. after   10 cycles
 SCF Done:  E(RHF) =  -226.391447333     A.U. after    9 cycles
 SCF Done:  E(RHF) =  -226.391447344     A.U. after    7 cycles
 Optimization completed.
    -- Stationary point found.

                          Input orientation:
 ---------------------------------------------------------------------
 Center     Atomic      Atomic             Coordinates (Angstroms)
 Number     Number       Type             X           Y           Z
 ---------------------------------------------------------------------
      1          6           0        0.738370    0.631338    0.051356
      2          6           0        1.375610   -0.509316    0.002746
      3          1           0        1.215102    1.588322    0.113726
      4          1           0        2.445749   -0.540698   -0.013025
      5          1           0        0.838248   -1.434412   -0.038751
      6          8           0       -0.667168    0.674373   -0.020275
      7          8           0       -1.148855    1.299335    1.218797
      8          1           0       -1.166383    2.241560    0.971442
 ---------------------------------------------------------------------

 Alpha  occ. eigenvalues --  -20.53168 -20.52280 -11.24292 -11.17811  -1.47150
 Alpha  occ. eigenvalues --   -1.23463  -1.03473  -0.80273  -0.69363  -0.69098
 Alpha  occ. eigenvalues --   -0.64461  -0.57011  -0.56058  -0.48975  -0.47877
 Alpha  occ. eigenvalues --   -0.38012
 Alpha virt. eigenvalues --    0.16192   0.25393   0.27250   0.31177   0.33007
 Alpha virt. eigenvalues --    0.35549   0.49248   0.56602   0.88882   0.96916
 Alpha virt. eigenvalues --    0.98683   1.06589   1.10024   1.11496   1.24727

 Mulliken charges:
               1
     1  C    0.134137
     2  C   -0.464745
     3  H    0.224521
     4  H    0.227740
     5  H    0.251736
     6  O   -0.396781
     7  O   -0.379064
     8  H    0.402455
 Sum of Mulliken charges =   0.00000

 Dipole moment (field-independent basis, Debye):
    X=              1.9237    Y=              1.7614    Z=             -0.2776  Tot=              2.6230
 Quadrupole moment (field-independent basis, Debye-Ang):
   XX=            -22.9264   YY=            -14.8699   ZZ=            -26.8800
   XY=             -1.4371   XZ=              0.4354   YZ=              1.5852

 Normal termination of Gaussian 09 at Fri Apr 12 16:17:16 2019.
