 Gaussian 09, Revision D.01,
 Gaussian 09:  AS64L-G09RevD.01 24-Apr-2013

 --------------------------------------------------------------------
 #p hf 3-21g scf=tight NoSymmetry guess=read opt=(tight,modredundant)
 --------------------------------------------------------------------

 -----------------------------------
 Geometry optimization at the 2D-PES
 -----------------------------------
 Symbolic Z-matrix:
 Charge =  0 Multiplicity = 1

 SCF Done:  E(RHF) =  -226.390750160     A.U. after   13 cycles
 SCF Done:  E(RHF) =  -226.390765621     A.U. after   12 cycles
 SCF Done:  E(RHF) =  -226.390789979     A.U. after   12 cycles
 SCF Done:  E(RHF) =  -226.390790167     A.U. after    9 cycles
 SCF Done:  E(RHF) =  -226.390790192     A.U. after    7 cycles
 Optimization completed.
    -- Stationary point found.

                          Input orientation:
 ---------------------------------------------------------------------
 Center     Atomic      Atomic             Coordinates (Angstroms)
 Number     Number       Type             X           Y           Z
 ---------------------------------------------------------------------
      1          6           0        0.743824    0.578164    0.035414
      2          6           0        1.431698   -0.534870   -0.040010
      3          1           0        1.177539    1.555207    0.079348
      4          1           0        2.500990   -0.503405   -0.036619
      5          1           0        0.957790   -1.489613   -0.129134
      6          8           0       -0.648049    0.698604    0.042986
      7          8           0       -1.289310   -0.556967    0.423369
      8          1           0       -0.813949   -0.805743    1.240033
 ---------------------------------------------------------------------

 Alpha  occ. eigenvalues --  -20.54493 -20.53331 -11.25648 -11.17719  -1.48626
 Alpha  occ. eigenvalues --   -1.24378  -1.04658  -0.80966  -0.71665  -0.68857
 Alpha  occ. eigenvalues --   -0.64392  -0.57092  -0.56575  -0.52667  -0.48440
 Alpha  occ. eigenvalues --   -0.37422
 Alpha virt. eigenvalues --    0.17514   0.22960   0.27997   0.28870   0.32201
 Alpha virt. eigenvalues --    0.36734   0.49445   0.57575   0.87845   0.96461
 Alpha virt. eigenvalues --    0.99929   1.05568   1.08804   1.10954   1.24235

 Mulliken charges:
               1
     1  C    0.125685
     2  C   -0.522300
     3  H    0.266647
     4  H    0.231773
     5  H    0.243803
     6  O   -0.387316
     7  O   -0.364158
     8  H    0.405865
 Sum of Mulliken charges =   0.00000

 Dipole moment (field-independent basis, Debye):
    X=              2.6220    Y=             -0.5736    Z=              1.6896  Tot=              3.1715
 Quadrupole moment (field-independent basis, Debye-Ang):
   XX=            -25.1909   YY=            -21.5602   ZZ=            -22.7762
   XY=              1.5162   XZ=             -1.0063   YZ=             -1.4202

 Normal termination of Gaussian 09 at Fri Apr 12 17:41:17 2019.
