 Gaussian 09, Revision D.01,
 Gaussian 09:  AS64L-G09RevD.01 24-Apr-2013

 --------------------------------------------------------------------
 #p hf 3-21g scf=tight NoSymmetry guess=read opt=(tight,modredundant)
 --------------------------------------------------------------------

 -----------------------------------
 Geometry optimization at the 2D-PES
 -----------------------------------
 Symbolic Z-matrix:
 Charge =  0 Multiplicity = 1

 SCF Done:  E(RHF) =  -226.389756043     A.U. after   13 cycles
 SCF Done:  E(RHF) =  -226.389764676     A.U. after   12 cycles
 SCF Done:  E(RHF) =  -226.389773067     A.U. after   10 cycles
 SCF Done:  E(RHF) =  -226.389773122     A.U. after    8 cycles
 SCF Done:  E(RHF) =  -226.389773127     A.U. after    7 cycles
 Optimization completed.
    -- Stationary point found.

                          Input orientation:
 ---------------------------------------------------------------------
 Center     Atomic      Atomic             Coordinates (Angstroms)
 Number     Number       Type             X           Y           Z
 ---------------------------------------------------------------------
      1          6           0        0.746669    0.591420    0.054721
      2          6           0        1.416659   -0.530084   -0.030900
      3          1           0        1.192637    1.564158    0.073535
      4          1           0        2.486891   -0.520702   -0.043404
      5          1           0        0.915398   -1.474747   -0.071615
      6          8           0       -0.656028    0.700206    0.039637
      7          8           0       -1.257753   -0.381940    0.821537
      8          1           0       -0.881248   -0.235220    1.709531
 ---------------------------------------------------------------------

 Alpha  occ. eigenvalues --  -20.53629 -20.52782 -11.24847 -11.17827  -1.47705
 Alpha  occ. eigenvalues --   -1.23653  -1.04230  -0.80652  -0.70179  -0.69143
 Alpha  occ. eigenvalues --   -0.62923  -0.58254  -0.56751  -0.50872  -0.47438
 Alpha  occ. eigenvalues --   -0.37684
 Alpha virt. eigenvalues --    0.16066   0.24943   0.28255   0.28981   0.32051
 Alpha virt. eigenvalues --    0.36899   0.49626   0.56921   0.87797   0.96633
 Alpha virt. eigenvalues --    0.99071   1.05969   1.09340   1.10736   1.24475

 Mulliken charges:
               1
     1  C    0.098895
     2  C   -0.485326
     3  H    0.256189
     4  H    0.228896
     5  H    0.255837
     6  O   -0.387498
     7  O   -0.370294
     8  H    0.403301
 Sum of Mulliken charges =   0.00000

 Dipole moment (field-independent basis, Debye):
    X=              2.5958    Y=              0.0245    Z=              1.9433  Tot=              3.2427
 Quadrupole moment (field-independent basis, Debye-Ang):
   XX=            -24.7135   YY=            -22.4937   ZZ=            -20.7551
   XY=              0.8151   XZ=             -1.0982   YZ=              0.0458

 Normal termination of Gaussian 09 at Fri Apr 12 17:20:29 2019.
