 Gaussian 09, Revision D.01,
 Gaussian 09:  AS64L-G09RevD.01 24-Apr-2013

 --------------------------------------------------------------------
 #p hf 3-21g scf=tight NoSymmetry guess=read opt=(tight,modredundant)
 --------------------------------------------------------------------

 -----------------------------------
 Geometry optimization at the 2D-PES
 -----------------------------------
 Symbolic Z-matrix:
 Charge =  0 Multiplicity = 1

 SCF Done:  E(RHF) =  -226.380954030     A.U. after   14 cycles
 SCF Done:  E(RHF) =  -226.380977578     A.U. after   12 cycles
 SCF Done:  E(RHF) =  -226.380984799     A.U. after   11 cycles
 SCF Done:  E(RHF) =  -226.380985129     A.U. after    9 cycles
 SCF Done:  E(RHF) =  -226.380985157     A.U. after    7 cycles
 SCF Done:  E(RHF) =  -226.380985160     A.U. after    7 cycles
 Optimization completed.
    -- Stationary point found.

                          Input orientation:
 ---------------------------------------------------------------------
 Center     Atomic      Atomic             Coordinates (Angstroms)
 Number     Number       Type             X           Y           Z
 ---------------------------------------------------------------------
      1          6           0        0.743372    0.628648    0.033039
      2          6           0        1.395115   -0.507303   -0.003701
      3          1           0        1.212270    1.590102    0.086472
      4          1           0        2.465624   -0.526909    0.026367
      5          1           0        0.871063   -1.441053   -0.044829
      6          8           0       -0.667297    0.665285    0.031327
      7          8           0       -1.173914    0.725163   -1.360013
      8          1           0       -0.368306    0.722750   -1.910010
 ---------------------------------------------------------------------

 Alpha  occ. eigenvalues --  -20.52687 -20.51776 -11.25080 -11.19746  -1.46174
 Alpha  occ. eigenvalues --   -1.23311  -1.05017  -0.81305  -0.71630  -0.67692
 Alpha  occ. eigenvalues --   -0.60171  -0.59029  -0.57157  -0.52625  -0.43798
 Alpha  occ. eigenvalues --   -0.40106
 Alpha virt. eigenvalues --    0.13431   0.26824   0.27360   0.29187   0.30643
 Alpha virt. eigenvalues --    0.36125   0.49180   0.55063   0.87271   0.96896
 Alpha virt. eigenvalues --    0.97165   1.04870   1.08427   1.11160   1.23874

 Mulliken charges:
               1
     1  C    0.059796
     2  C   -0.444258
     3  H    0.243883
     4  H    0.235745
     5  H    0.259593
     6  O   -0.377329
     7  O   -0.374995
     8  H    0.397565
 Sum of Mulliken charges =   0.00000

 Dipole moment (field-independent basis, Debye):
    X=              3.7736    Y=             -0.3784    Z=             -1.1936  Tot=              3.9759
 Quadrupole moment (field-independent basis, Debye-Ang):
   XX=            -25.2611   YY=            -22.1231   ZZ=            -21.7990
   XY=              2.1517   XZ=             -1.6263   YZ=             -0.7650

 Normal termination of Gaussian 09 at Fri Apr 12 15:03:58 2019.
