 Gaussian 09, Revision D.01,
 Gaussian 09:  AS64L-G09RevD.01 24-Apr-2013

 --------------------------------------------------------------------
 #p hf 3-21g scf=tight NoSymmetry guess=read opt=(tight,modredundant)
 --------------------------------------------------------------------

 -----------------------------------
 Geometry optimization at the 2D-PES
 -----------------------------------
 Symbolic Z-matrix:
 Charge =  0 Multiplicity = 1

 SCF Done:  E(RHF) =  -226.393982473     A.U. after   13 cycles
 SCF Done:  E(RHF) =  -226.393989981     A.U. after   11 cycles
 SCF Done:  E(RHF) =  -226.393994045     A.U. after   10 cycles
 SCF Done:  E(RHF) =  -226.393994123     A.U. after    8 cycles
 SCF Done:  E(RHF) =  -226.393994132     A.U. after    6 cycles
 Optimization completed.
    -- Stationary point found.

                          Input orientation:
 ---------------------------------------------------------------------
 Center     Atomic      Atomic             Coordinates (Angstroms)
 Number     Number       Type             X           Y           Z
 ---------------------------------------------------------------------
      1          6           0        0.728577    0.629648    0.044777
      2          6           0        1.369786   -0.509228    0.003119
      3          1           0        1.195748    1.588201    0.129211
      4          1           0        2.440232   -0.536783    0.005790
      5          1           0        0.837094   -1.436470   -0.050403
      6          8           0       -0.676485    0.666642   -0.027386
      7          8           0       -1.138859    1.072609    1.311903
      8          1           0       -1.746947    1.792014    1.070018
 ---------------------------------------------------------------------

 Alpha  occ. eigenvalues --  -20.52622 -20.51782 -11.23752 -11.17534  -1.46498
 Alpha  occ. eigenvalues --   -1.23149  -1.03059  -0.79407  -0.69580  -0.67881
 Alpha  occ. eigenvalues --   -0.64857  -0.57027  -0.55124  -0.50541  -0.45467
 Alpha  occ. eigenvalues --   -0.37954
 Alpha virt. eigenvalues --    0.16054   0.26928   0.28613   0.31263   0.32345
 Alpha virt. eigenvalues --    0.36061   0.49201   0.56903   0.89172   0.97400
 Alpha virt. eigenvalues --    0.99148   1.07212   1.10562   1.12905   1.22584

 Mulliken charges:
               1
     1  C    0.142813
     2  C   -0.459804
     3  H    0.231451
     4  H    0.226414
     5  H    0.249163
     6  O   -0.411479
     7  O   -0.389558
     8  H    0.411000
 Sum of Mulliken charges =   0.00000

 Dipole moment (field-independent basis, Debye):
    X=              0.7287    Y=              1.3460    Z=             -0.2293  Tot=              1.5477
 Quadrupole moment (field-independent basis, Debye-Ang):
   XX=            -19.1541   YY=            -17.5365   ZZ=            -26.9286
   XY=             -3.2127   XZ=             -0.8872   YZ=              1.5030

 Normal termination of Gaussian 09 at Fri Apr 12 16:23:53 2019.
