 Gaussian 09, Revision D.01,
 Gaussian 09:  AS64L-G09RevD.01 24-Apr-2013

 --------------------------------------------------------------------
 #p hf 3-21g scf=tight NoSymmetry guess=read opt=(tight,modredundant)
 --------------------------------------------------------------------

 -----------------------------------
 Geometry optimization at the 2D-PES
 -----------------------------------
 Symbolic Z-matrix:
 Charge =  0 Multiplicity = 1

 SCF Done:  E(RHF) =  -226.392265873     A.U. after   13 cycles
 SCF Done:  E(RHF) =  -226.392266346     A.U. after    9 cycles
 SCF Done:  E(RHF) =  -226.392266508     A.U. after    8 cycles
 SCF Done:  E(RHF) =  -226.392266519     A.U. after    7 cycles
 Optimization completed.
    -- Stationary point found.

                          Input orientation:
 ---------------------------------------------------------------------
 Center     Atomic      Atomic             Coordinates (Angstroms)
 Number     Number       Type             X           Y           Z
 ---------------------------------------------------------------------
      1          6           0        0.729178    0.613800    0.045749
      2          6           0        1.379220   -0.519372   -0.012870
      3          1           0        1.198270    1.573377    0.108766
      4          1           0        2.449825   -0.535775    0.002346
      5          1           0        0.860009   -1.454630   -0.058923
      6          8           0       -0.675376    0.686836   -0.006882
      7          8           0       -1.184911    0.128039    1.262807
      8          1           0       -2.137846    0.235510    1.099563
 ---------------------------------------------------------------------

 Alpha  occ. eigenvalues --  -20.52107 -20.51553 -11.23507 -11.17367  -1.45876
 Alpha  occ. eigenvalues --   -1.22885  -1.02990  -0.78850  -0.69996  -0.66903
 Alpha  occ. eigenvalues --   -0.64101  -0.58096  -0.54668  -0.51191  -0.44172
 Alpha  occ. eigenvalues --   -0.37658
 Alpha virt. eigenvalues --    0.15655   0.27313   0.29437   0.30471   0.32201
 Alpha virt. eigenvalues --    0.37003   0.49956   0.57032   0.88996   0.97614
 Alpha virt. eigenvalues --    0.99390   1.07077   1.10451   1.12347   1.23673

 Mulliken charges:
               1
     1  C    0.137731
     2  C   -0.451329
     3  H    0.239370
     4  H    0.225707
     5  H    0.246905
     6  O   -0.423455
     7  O   -0.389566
     8  H    0.414638
 Sum of Mulliken charges =   0.00000

 Dipole moment (field-independent basis, Debye):
    X=              0.0134    Y=             -0.1313    Z=             -0.0245  Tot=              0.1342
 Quadrupole moment (field-independent basis, Debye-Ang):
   XX=            -15.8394   YY=            -22.2278   ZZ=            -26.4372
   XY=              0.4784   XZ=             -1.9191   YZ=              0.5605

 Normal termination of Gaussian 09 at Fri Apr 12 16:53:51 2019.
