 Gaussian 09, Revision D.01,
 Gaussian 09:  AS64L-G09RevD.01 24-Apr-2013

 --------------------------------------------------------------------
 #p hf 3-21g scf=tight NoSymmetry guess=read opt=(tight,modredundant)
 --------------------------------------------------------------------

 -----------------------------------
 Geometry optimization at the 2D-PES
 -----------------------------------
 Symbolic Z-matrix:
 Charge =  0 Multiplicity = 1

 SCF Done:  E(RHF) =  -226.382445867     A.U. after   13 cycles
 SCF Done:  E(RHF) =  -226.382454575     A.U. after   12 cycles
 SCF Done:  E(RHF) =  -226.382465645     A.U. after   11 cycles
 SCF Done:  E(RHF) =  -226.382465693     A.U. after    9 cycles
 SCF Done:  E(RHF) =  -226.382465695     A.U. after    6 cycles
 Optimization completed.
    -- Stationary point found.

                          Input orientation:
 ---------------------------------------------------------------------
 Center     Atomic      Atomic             Coordinates (Angstroms)
 Number     Number       Type             X           Y           Z
 ---------------------------------------------------------------------
      1          6           0        0.757493    0.625426    0.052212
      2          6           0        1.386880   -0.520010   -0.000330
      3          1           0        1.249704    1.579005    0.078757
      4          1           0        2.456507   -0.558808   -0.032903
      5          1           0        0.842107   -1.441224   -0.031965
      6          8           0       -0.646136    0.685384   -0.012249
      7          8           0       -1.183924    1.310280    1.211391
      8          1           0       -0.486218    1.928483    1.498764
 ---------------------------------------------------------------------

 Alpha  occ. eigenvalues --  -20.53296 -20.52234 -11.25076 -11.18887  -1.46862
 Alpha  occ. eigenvalues --   -1.23748  -1.04399  -0.81629  -0.70887  -0.68282
 Alpha  occ. eigenvalues --   -0.61619  -0.58651  -0.56946  -0.51596  -0.45947
 Alpha  occ. eigenvalues --   -0.38654
 Alpha virt. eigenvalues --    0.14615   0.25691   0.26034   0.30235   0.32771
 Alpha virt. eigenvalues --    0.35231   0.49694   0.55760   0.88018   0.95999
 Alpha virt. eigenvalues --    0.98948   1.06030   1.09534   1.10767   1.24400

 Mulliken charges:
               1
     1  C    0.089820
     2  C   -0.453495
     3  H    0.227001
     4  H    0.231916
     5  H    0.258137
     6  O   -0.377311
     7  O   -0.371981
     8  H    0.395912
 Sum of Mulliken charges =   0.00000

 Dipole moment (field-independent basis, Debye):
    X=              3.4251    Y=              0.8871    Z=              0.7226  Tot=              3.6111
 Quadrupole moment (field-independent basis, Debye-Ang):
   XX=            -25.1475   YY=            -17.9827   ZZ=            -24.0774
   XY=              2.2127   XZ=              1.2927   YZ=              3.0352

 Normal termination of Gaussian 09 at Fri Apr 12 16:19:12 2019.
