 Gaussian 09, Revision D.01,
 Gaussian 09:  AS64L-G09RevD.01 24-Apr-2013

 --------------------------------------------------------------------
 #p hf 3-21g scf=tight NoSymmetry guess=read opt=(tight,modredundant)
 --------------------------------------------------------------------

 -----------------------------------
 Geometry optimization at the 2D-PES
 -----------------------------------
 Symbolic Z-matrix:
 Charge =  0 Multiplicity = 1

 SCF Done:  E(RHF) =  -226.395904165     A.U. after   13 cycles
 SCF Done:  E(RHF) =  -226.395904821     A.U. after   10 cycles
 SCF Done:  E(RHF) =  -226.395905519     A.U. after   10 cycles
 SCF Done:  E(RHF) =  -226.395905526     A.U. after    7 cycles
 Optimization completed.
    -- Stationary point found.

                          Input orientation:
 ---------------------------------------------------------------------
 Center     Atomic      Atomic             Coordinates (Angstroms)
 Number     Number       Type             X           Y           Z
 ---------------------------------------------------------------------
      1          6           0        0.724895    0.634025    0.055487
      2          6           0        1.367541   -0.505298    0.002713
      3          1           0        1.183405    1.597087    0.115038
      4          1           0        2.437535   -0.523098   -0.012212
      5          1           0        0.844938   -1.438863   -0.042052
      6          8           0       -0.671707    0.673320   -0.017965
      7          8           0       -1.079979    1.851591    0.761385
      8          1           0       -2.006882    1.614189    0.930275
 ---------------------------------------------------------------------

 Alpha  occ. eigenvalues --  -20.53357 -20.52383 -11.24172 -11.16592  -1.47349
 Alpha  occ. eigenvalues --   -1.23896  -1.02696  -0.79714  -0.70473  -0.67194
 Alpha  occ. eigenvalues --   -0.63171  -0.60335  -0.55500  -0.50299  -0.47407
 Alpha  occ. eigenvalues --   -0.36215
 Alpha virt. eigenvalues --    0.18247   0.24284   0.27908   0.31968   0.33559
 Alpha virt. eigenvalues --    0.36063   0.49958   0.57546   0.90159   0.97372
 Alpha virt. eigenvalues --    1.00005   1.07158   1.10835   1.12401   1.23128

 Mulliken charges:
               1
     1  C    0.170180
     2  C   -0.501697
     3  H    0.258620
     4  H    0.226308
     5  H    0.237268
     6  O   -0.420218
     7  O   -0.392475
     8  H    0.422014
 Sum of Mulliken charges =   0.00000

 Dipole moment (field-independent basis, Debye):
    X=             -0.2031    Y=             -0.1941    Z=              0.5922  Tot=              0.6555
 Quadrupole moment (field-independent basis, Debye-Ang):
   XX=            -16.6674   YY=            -23.5521   ZZ=            -25.0958
   XY=             -1.3907   XZ=             -2.5368   YZ=              0.6131

 Normal termination of Gaussian 09 at Fri Apr 12 16:00:12 2019.
