 Gaussian 09, Revision D.01,
 Gaussian 09:  AS64L-G09RevD.01 24-Apr-2013

 --------------------------------------------------------------------
 #p hf 3-21g scf=tight NoSymmetry guess=read opt=(tight,modredundant)
 --------------------------------------------------------------------

 -----------------------------------
 Geometry optimization at the 2D-PES
 -----------------------------------
 Symbolic Z-matrix:
 Charge =  0 Multiplicity = 1

 SCF Done:  E(RHF) =  -226.390487910     A.U. after   12 cycles
 SCF Done:  E(RHF) =  -226.390497664     A.U. after   11 cycles
 SCF Done:  E(RHF) =  -226.390503656     A.U. after   10 cycles
 SCF Done:  E(RHF) =  -226.390503701     A.U. after    9 cycles
 SCF Done:  E(RHF) =  -226.390503711     A.U. after    7 cycles
 Optimization completed.
    -- Stationary point found.

                          Input orientation:
 ---------------------------------------------------------------------
 Center     Atomic      Atomic             Coordinates (Angstroms)
 Number     Number       Type             X           Y           Z
 ---------------------------------------------------------------------
      1          6           0        0.735973    0.621925    0.042318
      2          6           0        1.378640   -0.515430   -0.004176
      3          1           0        1.211326    1.579236    0.112061
      4          1           0        2.449271   -0.542798    0.006342
      5          1           0        0.847068   -1.443398   -0.059306
      6          8           0       -0.674717    0.673852   -0.015717
      7          8           0       -1.178403    0.598523    1.365221
      8          1           0       -1.367392    1.535584    1.550536
 ---------------------------------------------------------------------

 Alpha  occ. eigenvalues --  -20.52494 -20.51799 -11.23795 -11.17962  -1.46401
 Alpha  occ. eigenvalues --   -1.22916  -1.03413  -0.79817  -0.69788  -0.67738
 Alpha  occ. eigenvalues --   -0.63623  -0.58342  -0.56008  -0.47890  -0.46193
 Alpha  occ. eigenvalues --   -0.38711
 Alpha virt. eigenvalues --    0.15251   0.26455   0.28719   0.30801   0.32197
 Alpha virt. eigenvalues --    0.36204   0.49333   0.56487   0.88423   0.97217
 Alpha virt. eigenvalues --    0.98375   1.06504   1.09966   1.12045   1.24446

 Mulliken charges:
               1
     1  C    0.117696
     2  C   -0.444971
     3  H    0.226753
     4  H    0.226973
     5  H    0.254068
     6  O   -0.401803
     7  O   -0.382707
     8  H    0.403992
 Sum of Mulliken charges =   0.00000

 Dipole moment (field-independent basis, Debye):
    X=              1.6743    Y=              1.5739    Z=              0.6652  Tot=              2.3922
 Quadrupole moment (field-independent basis, Debye-Ang):
   XX=            -21.9236   YY=            -17.8153   ZZ=            -24.4830
   XY=             -2.0705   XZ=             -1.1900   YZ=              3.7876

 Normal termination of Gaussian 09 at Fri Apr 12 16:37:58 2019.
