 Gaussian 09, Revision D.01,
 Gaussian 09:  AS64L-G09RevD.01 24-Apr-2013

 --------------------------------------------------------------------
 #p hf 3-21g scf=tight NoSymmetry guess=read opt=(tight,modredundant)
 --------------------------------------------------------------------

 -----------------------------------
 Geometry optimization at the 2D-PES
 -----------------------------------
 Symbolic Z-matrix:
 Charge =  0 Multiplicity = 1

 SCF Done:  E(RHF) =  -226.382770550     A.U. after   14 cycles
 SCF Done:  E(RHF) =  -226.382797053     A.U. after   13 cycles
 SCF Done:  E(RHF) =  -226.382897839     A.U. after   12 cycles
 SCF Done:  E(RHF) =  -226.382898864     A.U. after   10 cycles
 SCF Done:  E(RHF) =  -226.382899068     A.U. after    9 cycles
 SCF Done:  E(RHF) =  -226.382899078     A.U. after    8 cycles
 Optimization completed.
    -- Stationary point found.

                          Input orientation:
 ---------------------------------------------------------------------
 Center     Atomic      Atomic             Coordinates (Angstroms)
 Number     Number       Type             X           Y           Z
 ---------------------------------------------------------------------
      1          6           0        0.750245    0.553914    0.061257
      2          6           0        1.475329   -0.533616   -0.043286
      3          1           0        1.178866    1.533606    0.096478
      4          1           0        2.541287   -0.448390   -0.068319
      5          1           0        1.086115   -1.530600   -0.081331
      6          8           0       -0.633830    0.694846    0.056807
      7          8           0       -1.380591   -0.519893    0.373384
      8          1           0       -0.822106   -1.249977    0.058274
 ---------------------------------------------------------------------

 Alpha  occ. eigenvalues --  -20.54768 -20.53399 -11.26433 -11.18333  -1.48643
 Alpha  occ. eigenvalues --   -1.25061  -1.05340  -0.81396  -0.73472  -0.68076
 Alpha  occ. eigenvalues --   -0.64994  -0.58477  -0.54602  -0.53849  -0.49169
 Alpha  occ. eigenvalues --   -0.37425
 Alpha virt. eigenvalues --    0.17507   0.21039   0.26777   0.27458   0.36201
 Alpha virt. eigenvalues --    0.36935   0.49448   0.60500   0.88014   0.95291
 Alpha virt. eigenvalues --    1.00876   1.05385   1.07939   1.10793   1.24398

 Mulliken charges:
               1
     1  C    0.149491
     2  C   -0.531647
     3  H    0.273002
     4  H    0.242412
     5  H    0.204736
     6  O   -0.390913
     7  O   -0.362306
     8  H    0.415224
 Sum of Mulliken charges =   0.00000

 Dipole moment (field-independent basis, Debye):
    X=              2.7440    Y=             -1.4138    Z=             -0.5331  Tot=              3.1325
 Quadrupole moment (field-independent basis, Debye-Ang):
   XX=            -25.4557   YY=            -19.5262   ZZ=            -26.1183
   XY=              2.4478   XZ=              0.9782   YZ=              0.5284

 Normal termination of Gaussian 09 at Fri Apr 12 17:31:56 2019.
