 Gaussian 09, Revision D.01,
 Gaussian 09:  AS64L-G09RevD.01 24-Apr-2013

 --------------------------------------------------------------------
 #p hf 3-21g scf=tight NoSymmetry guess=read opt=(tight,modredundant)
 --------------------------------------------------------------------

 -----------------------------------
 Geometry optimization at the 2D-PES
 -----------------------------------
 Symbolic Z-matrix:
 Charge =  0 Multiplicity = 1

 SCF Done:  E(RHF) =  -226.385142359     A.U. after   13 cycles
 SCF Done:  E(RHF) =  -226.385149605     A.U. after   12 cycles
 SCF Done:  E(RHF) =  -226.385160124     A.U. after   11 cycles
 SCF Done:  E(RHF) =  -226.385160184     A.U. after    9 cycles
 SCF Done:  E(RHF) =  -226.385160193     A.U. after    7 cycles
 Optimization completed.
    -- Stationary point found.

                          Input orientation:
 ---------------------------------------------------------------------
 Center     Atomic      Atomic             Coordinates (Angstroms)
 Number     Number       Type             X           Y           Z
 ---------------------------------------------------------------------
      1          6           0        0.729809    0.622454    0.036281
      2          6           0        1.386610   -0.510749   -0.010818
      3          1           0        1.195522    1.584718    0.066271
      4          1           0        2.457160   -0.523284   -0.002746
      5          1           0        0.877289   -1.454998   -0.021087
      6          8           0       -0.682029    0.662757    0.033020
      7          8           0       -1.165298    0.494698   -1.349355
      8          1           0       -0.680059   -0.294159   -1.653776
 ---------------------------------------------------------------------

 Alpha  occ. eigenvalues --  -20.52937 -20.52191 -11.25231 -11.19437  -1.46841
 Alpha  occ. eigenvalues --   -1.23344  -1.05037  -0.80704  -0.72632  -0.66479
 Alpha  occ. eigenvalues --   -0.63130  -0.59521  -0.56233  -0.51044  -0.45393
 Alpha  occ. eigenvalues --   -0.39789
 Alpha virt. eigenvalues --    0.14131   0.24418   0.27988   0.29996   0.31329
 Alpha virt. eigenvalues --    0.36196   0.49447   0.55105   0.87609   0.95992
 Alpha virt. eigenvalues --    0.98900   1.05155   1.08434   1.10697   1.24115

 Mulliken charges:
               1
     1  C    0.108661
     2  C   -0.477236
     3  H    0.250750
     4  H    0.238875
     5  H    0.239771
     6  O   -0.387584
     7  O   -0.371430
     8  H    0.398193
 Sum of Mulliken charges =   0.00000

 Dipole moment (field-independent basis, Debye):
    X=              3.0502    Y=             -1.7230    Z=             -0.7509  Tot=              3.5828
 Quadrupole moment (field-independent basis, Debye-Ang):
   XX=            -24.6962   YY=            -22.2906   ZZ=            -23.7160
   XY=              2.7876   XZ=             -0.6667   YZ=              2.4640

 Normal termination of Gaussian 09 at Fri Apr 12 15:02:30 2019.
