 Gaussian 09, Revision D.01,
 Gaussian 09:  AS64L-G09RevD.01 24-Apr-2013

 --------------------------------------------------------------------
 #p hf 3-21g scf=tight NoSymmetry guess=read opt=(tight,modredundant)
 --------------------------------------------------------------------

 -----------------------------------
 Geometry optimization at the 2D-PES
 -----------------------------------
 Symbolic Z-matrix:
 Charge =  0 Multiplicity = 1

 SCF Done:  E(RHF) =  -226.394903264     A.U. after   13 cycles
 SCF Done:  E(RHF) =  -226.394909156     A.U. after   10 cycles
 SCF Done:  E(RHF) =  -226.394911893     A.U. after   10 cycles
 SCF Done:  E(RHF) =  -226.394911947     A.U. after    8 cycles
 SCF Done:  E(RHF) =  -226.394911952     A.U. after    7 cycles
 SCF Done:  E(RHF) =  -226.394911953     A.U. after    6 cycles
 Optimization completed.
    -- Stationary point found.

                          Input orientation:
 ---------------------------------------------------------------------
 Center     Atomic      Atomic             Coordinates (Angstroms)
 Number     Number       Type             X           Y           Z
 ---------------------------------------------------------------------
      1          6           0        0.723533    0.638150    0.023426
      2          6           0        1.368222   -0.499863   -0.024334
      3          1           0        1.181682    1.602308    0.064480
      4          1           0        2.437688   -0.522935    0.018693
      5          1           0        0.844224   -1.432264   -0.081263
      6          8           0       -0.681184    0.664847    0.057047
      7          8           0       -1.092334    1.612176   -0.990298
      8          1           0       -1.624535    1.024459   -1.553523
 ---------------------------------------------------------------------

 Alpha  occ. eigenvalues --  -20.53157 -20.52187 -11.24192 -11.17456  -1.47148
 Alpha  occ. eigenvalues --   -1.23550  -1.03232  -0.79688  -0.71384  -0.66403
 Alpha  occ. eigenvalues --   -0.62361  -0.61505  -0.55709  -0.48830  -0.47028
 Alpha  occ. eigenvalues --   -0.37763
 Alpha virt. eigenvalues --    0.16887   0.25429   0.28054   0.31291   0.32780
 Alpha virt. eigenvalues --    0.35877   0.49303   0.56910   0.89516   0.96868
 Alpha virt. eigenvalues --    0.99262   1.06879   1.10336   1.12655   1.22231

 Mulliken charges:
               1
     1  C    0.150100
     2  C   -0.485198
     3  H    0.251795
     4  H    0.228574
     5  H    0.238658
     6  O   -0.408832
     7  O   -0.389653
     8  H    0.414557
 Sum of Mulliken charges =   0.00000

 Dipole moment (field-independent basis, Debye):
    X=              0.7829    Y=             -1.1225    Z=             -1.3820  Tot=              1.9450
 Quadrupole moment (field-independent basis, Debye-Ang):
   XX=            -19.9363   YY=            -25.2196   ZZ=            -22.4774
   XY=              1.5491   XZ=              3.6188   YZ=              0.1052

 Normal termination of Gaussian 09 at Fri Apr 12 15:21:11 2019.
