 Gaussian 09, Revision D.01,
 Gaussian 09:  AS64L-G09RevD.01 24-Apr-2013

 --------------------------------------------------------------------
 #p hf 3-21g scf=tight NoSymmetry guess=read opt=(tight,modredundant)
 --------------------------------------------------------------------

 -----------------------------------
 Geometry optimization at the 2D-PES
 -----------------------------------
 Symbolic Z-matrix:
 Charge =  0 Multiplicity = 1

 SCF Done:  E(RHF) =  -226.394404785     A.U. after   13 cycles
 SCF Done:  E(RHF) =  -226.394411888     A.U. after   11 cycles
 SCF Done:  E(RHF) =  -226.394417108     A.U. after   10 cycles
 SCF Done:  E(RHF) =  -226.394417148     A.U. after    8 cycles
 SCF Done:  E(RHF) =  -226.394417151     A.U. after    7 cycles
 Optimization completed.
    -- Stationary point found.

                          Input orientation:
 ---------------------------------------------------------------------
 Center     Atomic      Atomic             Coordinates (Angstroms)
 Number     Number       Type             X           Y           Z
 ---------------------------------------------------------------------
      1          6           0        0.732294    0.638237    0.023099
      2          6           0        1.370629   -0.503863   -0.018860
      3          1           0        1.191115    1.600538    0.088046
      4          1           0        2.439973   -0.526702    0.020172
      5          1           0        0.846448   -1.435922   -0.077871
      6          8           0       -0.671709    0.675087    0.047913
      7          8           0       -1.079973    2.009932   -0.386316
      8          1           0       -1.315830    1.843768   -1.316118
 ---------------------------------------------------------------------

 Alpha  occ. eigenvalues --  -20.53842 -20.53023 -11.24490 -11.16922  -1.48141
 Alpha  occ. eigenvalues --   -1.24033  -1.03154  -0.80023  -0.72189  -0.66134
 Alpha  occ. eigenvalues --   -0.64579  -0.59268  -0.55213  -0.50601  -0.48621
 Alpha  occ. eigenvalues --   -0.36691
 Alpha virt. eigenvalues --    0.18188   0.23196   0.27454   0.31638   0.33590
 Alpha virt. eigenvalues --    0.35769   0.49424   0.57326   0.89936   0.96656
 Alpha virt. eigenvalues --    0.99867   1.06000   1.10506   1.11724   1.23405

 Mulliken charges:
               1
     1  C    0.142248
     2  C   -0.503077
     3  H    0.260479
     4  H    0.228237
     5  H    0.240212
     6  O   -0.401330
     7  O   -0.379140
     8  H    0.412370
 Sum of Mulliken charges =   0.00000

 Dipole moment (field-independent basis, Debye):
    X=              1.2620    Y=             -0.0024    Z=             -2.0430  Tot=              2.4014
 Quadrupole moment (field-independent basis, Debye-Ang):
   XX=            -21.9910   YY=            -23.0601   ZZ=            -22.1243
   XY=              0.7077   XZ=              3.2672   YZ=             -3.4662

 Normal termination of Gaussian 09 at Fri Apr 12 15:30:55 2019.
