 Gaussian 09, Revision D.01,
 Gaussian 09:  AS64L-G09RevD.01 24-Apr-2013

 --------------------------------------------------------------------
 #p hf 3-21g scf=tight NoSymmetry guess=read opt=(tight,modredundant)
 --------------------------------------------------------------------

 -----------------------------------
 Geometry optimization at the 2D-PES
 -----------------------------------
 Symbolic Z-matrix:
 Charge =  0 Multiplicity = 1

 SCF Done:  E(RHF) =  -226.384321098     A.U. after   13 cycles
 SCF Done:  E(RHF) =  -226.384351278     A.U. after   13 cycles
 SCF Done:  E(RHF) =  -226.384378554     A.U. after   12 cycles
 SCF Done:  E(RHF) =  -226.384378783     A.U. after    9 cycles
 SCF Done:  E(RHF) =  -226.384378825     A.U. after    9 cycles
 SCF Done:  E(RHF) =  -226.384378826     A.U. after    6 cycles
 Optimization completed.
    -- Stationary point found.

                          Input orientation:
 ---------------------------------------------------------------------
 Center     Atomic      Atomic             Coordinates (Angstroms)
 Number     Number       Type             X           Y           Z
 ---------------------------------------------------------------------
      1          6           0        0.754827    0.633526    0.044163
      2          6           0        1.379313   -0.515292   -0.002955
      3          1           0        1.252559    1.579565    0.110189
      4          1           0        2.448850   -0.550895   -0.003395
      5          1           0        0.839962   -1.439212   -0.044823
      6          8           0       -0.646917    0.693351    0.001767
      7          8           0       -1.115073    2.045498    0.304129
      8          1           0       -0.584155    2.611411   -0.286477
 ---------------------------------------------------------------------

 Alpha  occ. eigenvalues --  -20.54173 -20.53405 -11.25514 -11.17404  -1.48321
 Alpha  occ. eigenvalues --   -1.24467  -1.03873  -0.81535  -0.71767  -0.67219
 Alpha  occ. eigenvalues --   -0.65027  -0.57562  -0.55166  -0.53048  -0.49002
 Alpha  occ. eigenvalues --   -0.36636
 Alpha virt. eigenvalues --    0.18119   0.21893   0.24687   0.31272   0.33918
 Alpha virt. eigenvalues --    0.35558   0.50526   0.56627   0.89026   0.96231
 Alpha virt. eigenvalues --    0.99092   1.05982   1.10045   1.10987   1.24045

 Mulliken charges:
               1
     1  C    0.133767
     2  C   -0.495997
     3  H    0.233335
     4  H    0.229717
     5  H    0.248460
     6  O   -0.386972
     7  O   -0.362374
     8  H    0.400065
 Sum of Mulliken charges =   0.00000

 Dipole moment (field-independent basis, Debye):
    X=              2.8352    Y=              1.3280    Z=             -1.0966  Tot=              3.3173
 Quadrupole moment (field-independent basis, Debye-Ang):
   XX=            -24.9005   YY=            -16.2167   ZZ=            -25.7739
   XY=              2.6999   XZ=              1.0551   YZ=             -2.6901

 Normal termination of Gaussian 09 at Fri Apr 12 15:44:54 2019.
