 Gaussian 09, Revision D.01,
 Gaussian 09:  AS64L-G09RevD.01 24-Apr-2013

 --------------------------------------------------------------------
 #p hf 3-21g scf=tight NoSymmetry guess=read opt=(tight,modredundant)
 --------------------------------------------------------------------

 -----------------------------------
 Geometry optimization at the 2D-PES
 -----------------------------------
 Symbolic Z-matrix:
 Charge =  0 Multiplicity = 1

 SCF Done:  E(RHF) =  -226.395745777     A.U. after   13 cycles
 SCF Done:  E(RHF) =  -226.395749474     A.U. after   11 cycles
 SCF Done:  E(RHF) =  -226.395752978     A.U. after   10 cycles
 SCF Done:  E(RHF) =  -226.395753033     A.U. after    8 cycles
 SCF Done:  E(RHF) =  -226.395753037     A.U. after    7 cycles
 Optimization completed.
    -- Stationary point found.

                          Input orientation:
 ---------------------------------------------------------------------
 Center     Atomic      Atomic             Coordinates (Angstroms)
 Number     Number       Type             X           Y           Z
 ---------------------------------------------------------------------
      1          6           0        0.723993    0.635200    0.040059
      2          6           0        1.367801   -0.503851   -0.012224
      3          1           0        1.179780    1.599017    0.096755
      4          1           0        2.437752   -0.517393   -0.001274
      5          1           0        0.850624   -1.440140   -0.062877
      6          8           0       -0.675408    0.672789    0.027360
      7          8           0       -1.059805    2.084255    0.096473
      8          1           0       -1.804356    2.082466   -0.527868
 ---------------------------------------------------------------------

 Alpha  occ. eigenvalues --  -20.53726 -20.52951 -11.24320 -11.16186  -1.47970
 Alpha  occ. eigenvalues --   -1.24161  -1.02618  -0.79824  -0.71042  -0.67076
 Alpha  occ. eigenvalues --   -0.64471  -0.58816  -0.55214  -0.50947  -0.48774
 Alpha  occ. eigenvalues --   -0.35621
 Alpha virt. eigenvalues --    0.19680   0.22312   0.27603   0.32169   0.34155
 Alpha virt. eigenvalues --    0.36003   0.50030   0.57849   0.90464   0.97198
 Alpha virt. eigenvalues --    1.00456   1.06679   1.11043   1.12800   1.22165

 Mulliken charges:
               1
     1  C    0.166631
     2  C   -0.513214
     3  H    0.264948
     4  H    0.225892
     5  H    0.236529
     6  O   -0.417432
     7  O   -0.384938
     8  H    0.421584
 Sum of Mulliken charges =   0.00000

 Dipole moment (field-independent basis, Debye):
    X=              0.1000    Y=              0.5183    Z=             -1.3167  Tot=              1.4185
 Quadrupole moment (field-independent basis, Debye-Ang):
   XX=            -18.4698   YY=            -21.4865   ZZ=            -25.1300
   XY=             -2.1303   XZ=              2.5999   YZ=             -2.6853

 Normal termination of Gaussian 09 at Fri Apr 12 15:38:58 2019.
