 Gaussian 09, Revision D.01,
 Gaussian 09:  AS64L-G09RevD.01 24-Apr-2013

 --------------------------------------------------------------------
 #p hf 3-21g scf=tight NoSymmetry guess=read opt=(tight,modredundant)
 --------------------------------------------------------------------

 -----------------------------------
 Geometry optimization at the 2D-PES
 -----------------------------------
 Symbolic Z-matrix:
 Charge =  0 Multiplicity = 1

 SCF Done:  E(RHF) =  -226.394366893     A.U. after   14 cycles
 SCF Done:  E(RHF) =  -226.394378056     A.U. after   12 cycles
 SCF Done:  E(RHF) =  -226.394388319     A.U. after   11 cycles
 SCF Done:  E(RHF) =  -226.394388512     A.U. after    9 cycles
 SCF Done:  E(RHF) =  -226.394388526     A.U. after    8 cycles
 SCF Done:  E(RHF) =  -226.394388527     A.U. after    6 cycles
 Optimization completed.
    -- Stationary point found.

                          Input orientation:
 ---------------------------------------------------------------------
 Center     Atomic      Atomic             Coordinates (Angstroms)
 Number     Number       Type             X           Y           Z
 ---------------------------------------------------------------------
      1          6           0        0.726324    0.631367    0.048351
      2          6           0        1.370211   -0.506971    0.004846
      3          1           0        1.187897    1.591956    0.126042
      4          1           0        2.440652   -0.529622    0.000109
      5          1           0        0.844784   -1.438529   -0.052675
      6          8           0       -0.677485    0.666625   -0.024338
      7          8           0       -1.126174    1.300446    1.228638
      8          1           0       -1.795289    0.652968    1.508658
 ---------------------------------------------------------------------

 Alpha  occ. eigenvalues --  -20.52842 -20.51908 -11.24043 -11.17596  -1.46732
 Alpha  occ. eigenvalues --   -1.23347  -1.03225  -0.79543  -0.70828  -0.66799
 Alpha  occ. eigenvalues --   -0.62806  -0.60591  -0.55799  -0.49101  -0.45877
 Alpha  occ. eigenvalues --   -0.38096
 Alpha virt. eigenvalues --    0.16413   0.26180   0.28391   0.31217   0.32366
 Alpha virt. eigenvalues --    0.35982   0.49321   0.56828   0.89304   0.97087
 Alpha virt. eigenvalues --    0.98943   1.07082   1.10250   1.12833   1.22475

 Mulliken charges:
               1
     1  C    0.151240
     2  C   -0.476132
     3  H    0.247397
     4  H    0.228509
     5  H    0.238433
     6  O   -0.412656
     7  O   -0.391888
     8  H    0.415097
 Sum of Mulliken charges =   0.00000

 Dipole moment (field-independent basis, Debye):
    X=              0.5416    Y=             -1.3736    Z=              0.8717  Tot=              1.7146
 Quadrupole moment (field-independent basis, Debye-Ang):
   XX=            -18.6975   YY=            -24.7049   ZZ=            -23.9524
   XY=              2.0070   XZ=             -3.1292   YZ=             -0.9818

 Normal termination of Gaussian 09 at Fri Apr 12 16:13:28 2019.
