 Gaussian 09, Revision D.01,
 Gaussian 09:  AS64L-G09RevD.01 24-Apr-2013

 --------------------------------------------------------------------
 #p hf 3-21g scf=tight NoSymmetry guess=read opt=(tight,modredundant)
 --------------------------------------------------------------------

 -----------------------------------
 Geometry optimization at the 2D-PES
 -----------------------------------
 Symbolic Z-matrix:
 Charge =  0 Multiplicity = 1

 SCF Done:  E(RHF) =  -226.398381030     A.U. after   13 cycles
 SCF Done:  E(RHF) =  -226.398381853     A.U. after   11 cycles
 SCF Done:  E(RHF) =  -226.398383161     A.U. after   10 cycles
 SCF Done:  E(RHF) =  -226.398383178     A.U. after    8 cycles
 SCF Done:  E(RHF) =  -226.398383180     A.U. after    6 cycles
 Optimization completed.
    -- Stationary point found.

                          Input orientation:
 ---------------------------------------------------------------------
 Center     Atomic      Atomic             Coordinates (Angstroms)
 Number     Number       Type             X           Y           Z
 ---------------------------------------------------------------------
      1          6           0        0.732063    0.572961    0.029046
      2          6           0        1.420455   -0.536356   -0.055753
      3          1           0        1.164791    1.549547    0.101089
      4          1           0        2.489969   -0.495892   -0.057706
      5          1           0        0.946655   -1.490562   -0.123354
      6          8           0       -0.652318    0.712427    0.048133
      7          8           0       -1.268523   -0.611498   -0.043748
      8          1           0       -2.189823   -0.337824   -0.185070
 ---------------------------------------------------------------------

 Alpha  occ. eigenvalues --  -20.53881 -20.52686 -11.24166 -11.15559  -1.47872
 Alpha  occ. eigenvalues --   -1.24117  -1.02633  -0.79059  -0.71960  -0.65008
 Alpha  occ. eigenvalues --   -0.64057  -0.61670  -0.53571  -0.50688  -0.48390
 Alpha  occ. eigenvalues --   -0.35356
 Alpha virt. eigenvalues --    0.20483   0.22784   0.28554   0.30599   0.34400
 Alpha virt. eigenvalues --    0.37460   0.50246   0.59332   0.89462   0.97565
 Alpha virt. eigenvalues --    1.00878   1.07723   1.10774   1.12812   1.24123

 Mulliken charges:
               1
     1  C    0.159526
     2  C   -0.508734
     3  H    0.257625
     4  H    0.217732
     5  H    0.255607
     6  O   -0.422915
     7  O   -0.384047
     8  H    0.425207
 Sum of Mulliken charges =   0.00000

 Dipole moment (field-independent basis, Debye):
    X=             -0.4311    Y=              0.3695    Z=             -0.3359  Tot=              0.6597
 Quadrupole moment (field-independent basis, Debye-Ang):
   XX=            -16.0329   YY=            -22.9217   ZZ=            -25.7543
   XY=              1.6331   XZ=              0.9370   YZ=              0.3332

 Normal termination of Gaussian 09 at Fri Apr 12 17:59:08 2019.
