 Gaussian 09, Revision D.01,
 Gaussian 09:  AS64L-G09RevD.01 24-Apr-2013

 --------------------------------------------------------------------
 #p hf 3-21g scf=tight NoSymmetry guess=read opt=(tight,modredundant)
 --------------------------------------------------------------------

 -----------------------------------
 Geometry optimization at the 2D-PES
 -----------------------------------
 Symbolic Z-matrix:
 Charge =  0 Multiplicity = 1

 SCF Done:  E(RHF) =  -226.381823053     A.U. after   14 cycles
 SCF Done:  E(RHF) =  -226.381909867     A.U. after   13 cycles
 SCF Done:  E(RHF) =  -226.382110172     A.U. after   12 cycles
 SCF Done:  E(RHF) =  -226.382113483     A.U. after   11 cycles
 SCF Done:  E(RHF) =  -226.382114139     A.U. after    8 cycles
 SCF Done:  E(RHF) =  -226.382114177     A.U. after    8 cycles
 SCF Done:  E(RHF) =  -226.382114178     A.U. after    6 cycles
 Optimization completed.
    -- Stationary point found.

                          Input orientation:
 ---------------------------------------------------------------------
 Center     Atomic      Atomic             Coordinates (Angstroms)
 Number     Number       Type             X           Y           Z
 ---------------------------------------------------------------------
      1          6           0        0.750324    0.571265    0.033035
      2          6           0        1.452667   -0.534626   -0.043738
      3          1           0        1.189208    1.546259    0.066809
      4          1           0        2.521090   -0.484703   -0.048560
      5          1           0        1.016507   -1.509012   -0.141595
      6          8           0       -0.637878    0.691113    0.053383
      7          8           0       -1.332327   -0.450683    0.656972
      8          1           0       -0.623195   -1.064220    0.919305
 ---------------------------------------------------------------------

 Alpha  occ. eigenvalues --  -20.54340 -20.53096 -11.26510 -11.18674  -1.48176
 Alpha  occ. eigenvalues --   -1.24753  -1.05514  -0.81436  -0.73331  -0.68187
 Alpha  occ. eigenvalues --   -0.63513  -0.59021  -0.54888  -0.54368  -0.48194
 Alpha  occ. eigenvalues --   -0.37703
 Alpha virt. eigenvalues --    0.16222   0.22308   0.27224   0.28141   0.33762
 Alpha virt. eigenvalues --    0.36714   0.49646   0.58209   0.87636   0.95379
 Alpha virt. eigenvalues --    1.01083   1.05157   1.07831   1.11062   1.23178

 Mulliken charges:
               1
     1  C    0.140831
     2  C   -0.536050
     3  H    0.271034
     4  H    0.241904
     5  H    0.223194
     6  O   -0.389301
     7  O   -0.363600
     8  H    0.411988
 Sum of Mulliken charges =   0.00000

 Dipole moment (field-independent basis, Debye):
    X=              3.1502    Y=             -1.2150    Z=              0.5883  Tot=              3.4273
 Quadrupole moment (field-independent basis, Debye-Ang):
   XX=            -25.7432   YY=            -20.2429   ZZ=            -24.8866
   XY=              1.8285   XZ=              0.5499   YZ=             -1.2326

 Normal termination of Gaussian 09 at Fri Apr 12 17:22:33 2019.
