 Gaussian 09, Revision D.01,
 Gaussian 09:  AS64L-G09RevD.01 24-Apr-2013

 --------------------------------------------------------------------
 #p hf 3-21g scf=tight NoSymmetry guess=read opt=(tight,modredundant)
 --------------------------------------------------------------------

 -----------------------------------
 Geometry optimization at the 2D-PES
 -----------------------------------
 Symbolic Z-matrix:
 Charge =  0 Multiplicity = 1

 SCF Done:  E(RHF) =  -226.388995657     A.U. after   12 cycles
 SCF Done:  E(RHF) =  -226.389006745     A.U. after   12 cycles
 SCF Done:  E(RHF) =  -226.389013815     A.U. after   10 cycles
 SCF Done:  E(RHF) =  -226.389013869     A.U. after    9 cycles
 SCF Done:  E(RHF) =  -226.389013878     A.U. after    8 cycles
 Optimization completed.
    -- Stationary point found.

                          Input orientation:
 ---------------------------------------------------------------------
 Center     Atomic      Atomic             Coordinates (Angstroms)
 Number     Number       Type             X           Y           Z
 ---------------------------------------------------------------------
      1          6           0        0.739721    0.624729    0.044567
      2          6           0        1.380517   -0.513777   -0.001749
      3          1           0        1.217533    1.582067    0.106918
      4          1           0        2.451101   -0.543787   -0.002112
      5          1           0        0.845410   -1.439901   -0.052313
      6          8           0       -0.670283    0.673369   -0.016326
      7          8           0       -1.176184    0.840275    1.354883
      8          1           0       -1.055812    1.795837    1.505327
 ---------------------------------------------------------------------

 Alpha  occ. eigenvalues --  -20.52783 -20.52001 -11.24128 -11.18264  -1.46675
 Alpha  occ. eigenvalues --   -1.23111  -1.03700  -0.80387  -0.69439  -0.68796
 Alpha  occ. eigenvalues --   -0.63184  -0.57980  -0.56617  -0.47978  -0.46882
 Alpha  occ. eigenvalues --   -0.38839
 Alpha virt. eigenvalues --    0.15114   0.26019   0.27942   0.30677   0.32404
 Alpha virt. eigenvalues --    0.35794   0.49324   0.56272   0.88345   0.96833
 Alpha virt. eigenvalues --    0.98442   1.06204   1.09689   1.11219   1.25449

 Mulliken charges:
               1
     1  C    0.110389
     2  C   -0.446423
     3  H    0.224064
     4  H    0.228316
     5  H    0.255464
     6  O   -0.392704
     7  O   -0.378185
     8  H    0.399079
 Sum of Mulliken charges =   0.00000

 Dipole moment (field-independent basis, Debye):
    X=              2.3019    Y=              1.5874    Z=              0.5454  Tot=              2.8488
 Quadrupole moment (field-independent basis, Debye-Ang):
   XX=            -23.4893   YY=            -16.7540   ZZ=            -24.7766
   XY=             -1.0074   XZ=             -0.0965   YZ=              3.7076

 Normal termination of Gaussian 09 at Fri Apr 12 16:32:19 2019.
