 Gaussian 09, Revision D.01,
 Gaussian 09:  AS64L-G09RevD.01 24-Apr-2013

 --------------------------------------------------------------------
 #p hf 3-21g scf=tight NoSymmetry guess=read opt=(tight,modredundant)
 --------------------------------------------------------------------

 -----------------------------------
 Geometry optimization at the 2D-PES
 -----------------------------------
 Symbolic Z-matrix:
 Charge =  0 Multiplicity = 1

 SCF Done:  E(RHF) =  -226.389433061     A.U. after   13 cycles
 SCF Done:  E(RHF) =  -226.389438926     A.U. after   11 cycles
 SCF Done:  E(RHF) =  -226.389446289     A.U. after   10 cycles
 SCF Done:  E(RHF) =  -226.389446314     A.U. after    8 cycles
 SCF Done:  E(RHF) =  -226.389446322     A.U. after    7 cycles
 Optimization completed.
    -- Stationary point found.

                          Input orientation:
 ---------------------------------------------------------------------
 Center     Atomic      Atomic             Coordinates (Angstroms)
 Number     Number       Type             X           Y           Z
 ---------------------------------------------------------------------
      1          6           0        0.722706    0.626299    0.033376
      2          6           0        1.376701   -0.506849   -0.018692
      3          1           0        1.186015    1.589431    0.055758
      4          1           0        2.447319   -0.522402   -0.010739
      5          1           0        0.863961   -1.448457   -0.037430
      6          8           0       -0.690395    0.659843    0.042149
      7          8           0       -1.135146    0.730527   -1.358848
      8          1           0       -1.058475   -0.200635   -1.634315
 ---------------------------------------------------------------------

 Alpha  occ. eigenvalues --  -20.52872 -20.52142 -11.24631 -11.18837  -1.46893
 Alpha  occ. eigenvalues --   -1.23176  -1.04365  -0.80121  -0.72145  -0.65488
 Alpha  occ. eigenvalues --   -0.64687  -0.59571  -0.56131  -0.48643  -0.46445
 Alpha  occ. eigenvalues --   -0.39521
 Alpha virt. eigenvalues --    0.14824   0.24815   0.28349   0.30585   0.31666
 Alpha virt. eigenvalues --    0.36045   0.49170   0.55736   0.88054   0.96387
 Alpha virt. eigenvalues --    0.97909   1.05994   1.08983   1.11112   1.25001

 Mulliken charges:
               1
     1  C    0.123018
     2  C   -0.469534
     3  H    0.247281
     4  H    0.235146
     5  H    0.234932
     6  O   -0.395162
     7  O   -0.376940
     8  H    0.401258
 Sum of Mulliken charges =   0.00000

 Dipole moment (field-independent basis, Debye):
    X=              2.2118    Y=             -2.0048    Z=             -0.7518  Tot=              3.0784
 Quadrupole moment (field-independent basis, Debye-Ang):
   XX=            -23.3153   YY=            -22.9378   ZZ=            -23.9046
   XY=              3.4349   XZ=              0.6679   YZ=              2.8439

 Normal termination of Gaussian 09 at Fri Apr 12 15:06:33 2019.
