 Gaussian 09, Revision D.01,
 Gaussian 09:  AS64L-G09RevD.01 24-Apr-2013

 --------------------------------------------------------------------
 #p hf 3-21g scf=tight NoSymmetry guess=read opt=(tight,modredundant)
 --------------------------------------------------------------------

 -----------------------------------
 Geometry optimization at the 2D-PES
 -----------------------------------
 Symbolic Z-matrix:
 Charge =  0 Multiplicity = 1

 SCF Done:  E(RHF) =  -226.385254030     A.U. after   13 cycles
 SCF Done:  E(RHF) =  -226.385269557     A.U. after   12 cycles
 SCF Done:  E(RHF) =  -226.385282989     A.U. after   11 cycles
 SCF Done:  E(RHF) =  -226.385283071     A.U. after    9 cycles
 SCF Done:  E(RHF) =  -226.385283083     A.U. after    8 cycles
 SCF Done:  E(RHF) =  -226.385283083     A.U. after    7 cycles
 Optimization completed.
    -- Stationary point found.

                          Input orientation:
 ---------------------------------------------------------------------
 Center     Atomic      Atomic             Coordinates (Angstroms)
 Number     Number       Type             X           Y           Z
 ---------------------------------------------------------------------
      1          6           0        0.750952    0.626990    0.053118
      2          6           0        1.383376   -0.516347    0.001218
      3          1           0        1.240355    1.581310    0.089990
      4          1           0        2.453179   -0.552731   -0.026610
      5          1           0        0.840962   -1.438814   -0.032626
      6          8           0       -0.653346    0.683515   -0.015456
      7          8           0       -1.174862    1.306540    1.211842
      8          1           0       -0.646724    2.122218    1.300183
 ---------------------------------------------------------------------

 Alpha  occ. eigenvalues --  -20.53334 -20.52344 -11.24873 -11.18551  -1.47084
 Alpha  occ. eigenvalues --   -1.23669  -1.04131  -0.81334  -0.70341  -0.68673
 Alpha  occ. eigenvalues --   -0.62725  -0.57769  -0.57123  -0.50509  -0.46665
 Alpha  occ. eigenvalues --   -0.38502
 Alpha virt. eigenvalues --    0.15223   0.25087   0.26243   0.30542   0.33187
 Alpha virt. eigenvalues --    0.35258   0.49798   0.56013   0.88404   0.96179
 Alpha virt. eigenvalues --    0.98978   1.05886   1.09714   1.10706   1.24995

 Mulliken charges:
               1
     1  C    0.106100
     2  C   -0.456612
     3  H    0.221929
     4  H    0.230536
     5  H    0.256452
     6  O   -0.382085
     7  O   -0.371768
     8  H    0.395448
 Sum of Mulliken charges =   0.00000

 Dipole moment (field-independent basis, Debye):
    X=              3.0598    Y=              1.3229    Z=              0.3526  Tot=              3.3521
 Quadrupole moment (field-independent basis, Debye-Ang):
   XX=            -24.8241   YY=            -16.2772   ZZ=            -25.2726
   XY=              1.2807   XZ=              1.0376   YZ=              2.7761

 Normal termination of Gaussian 09 at Fri Apr 12 16:18:38 2019.
