 Gaussian 09, Revision D.01,
 Gaussian 09:  AS64L-G09RevD.01 24-Apr-2013

 --------------------------------------------------------------------
 #p hf 3-21g scf=tight NoSymmetry guess=read opt=(tight,modredundant)
 --------------------------------------------------------------------

 -----------------------------------
 Geometry optimization at the 2D-PES
 -----------------------------------
 Symbolic Z-matrix:
 Charge =  0 Multiplicity = 1

 SCF Done:  E(RHF) =  -226.377900605     A.U. after   13 cycles
 SCF Done:  E(RHF) =  -226.378028594     A.U. after   12 cycles
 SCF Done:  E(RHF) =  -226.378038226     A.U. after   11 cycles
 SCF Done:  E(RHF) =  -226.378038688     A.U. after    9 cycles
 SCF Done:  E(RHF) =  -226.378038696     A.U. after    7 cycles
 SCF Done:  E(RHF) =  -226.378038698     A.U. after    6 cycles
 Optimization completed.
    -- Stationary point found.

                          Input orientation:
 ---------------------------------------------------------------------
 Center     Atomic      Atomic             Coordinates (Angstroms)
 Number     Number       Type             X           Y           Z
 ---------------------------------------------------------------------
      1          6           0        0.770342    0.628607    0.052894
      2          6           0        1.384848   -0.525619    0.002268
      3          1           0        1.289637    1.566863    0.084509
      4          1           0        2.453945   -0.570769    0.003053
      5          1           0        0.836252   -1.443700   -0.044394
      6          8           0       -0.626344    0.704037   -0.007461
      7          8           0       -1.142060    2.043722    0.295886
      8          1           0       -0.357219    2.591826    0.476376
 ---------------------------------------------------------------------

 Alpha  occ. eigenvalues --  -20.54190 -20.53304 -11.26053 -11.17702  -1.48017
 Alpha  occ. eigenvalues --   -1.24777  -1.04232  -0.82261  -0.72018  -0.67005
 Alpha  occ. eigenvalues --   -0.63895  -0.58901  -0.55387  -0.52869  -0.49196
 Alpha  occ. eigenvalues --   -0.36528
 Alpha virt. eigenvalues --    0.17669   0.22004   0.23330   0.30949   0.34100
 Alpha virt. eigenvalues --    0.35870   0.51732   0.56312   0.88756   0.95756
 Alpha virt. eigenvalues --    0.99190   1.05481   1.09828   1.11235   1.22815

 Mulliken charges:
               1
     1  C    0.126592
     2  C   -0.491526
     3  H    0.225786
     4  H    0.230993
     5  H    0.251250
     6  O   -0.382628
     7  O   -0.360032
     8  H    0.399565
 Sum of Mulliken charges =   0.00000

 Dipole moment (field-independent basis, Debye):
    X=              3.3494    Y=              1.2120    Z=              0.4624  Tot=              3.5919
 Quadrupole moment (field-independent basis, Debye-Ang):
   XX=            -25.3159   YY=            -16.4906   ZZ=            -25.5324
   XY=              4.0318   XZ=              0.3248   YZ=              1.6072

 Normal termination of Gaussian 09 at Fri Apr 12 15:43:28 2019.
