 Gaussian 09, Revision D.01,
 Gaussian 09:  AS64L-G09RevD.01 24-Apr-2013

 --------------------------------------------------------------------
 #p hf 3-21g scf=tight NoSymmetry guess=read opt=(tight,modredundant)
 --------------------------------------------------------------------

 -----------------------------------
 Geometry optimization at the 2D-PES
 -----------------------------------
 Symbolic Z-matrix:
 Charge =  0 Multiplicity = 1

 SCF Done:  E(RHF) =  -226.396969161     A.U. after   13 cycles
 SCF Done:  E(RHF) =  -226.396977922     A.U. after   11 cycles
 SCF Done:  E(RHF) =  -226.396986692     A.U. after   10 cycles
 SCF Done:  E(RHF) =  -226.396986819     A.U. after    9 cycles
 SCF Done:  E(RHF) =  -226.396986828     A.U. after    8 cycles
 Optimization completed.
    -- Stationary point found.

                          Input orientation:
 ---------------------------------------------------------------------
 Center     Atomic      Atomic             Coordinates (Angstroms)
 Number     Number       Type             X           Y           Z
 ---------------------------------------------------------------------
      1          6           0        0.739503    0.571156    0.040995
      2          6           0        1.428143   -0.537796   -0.045550
      3          1           0        1.169661    1.550252    0.088365
      4          1           0        2.497569   -0.500232   -0.053080
      5          1           0        0.950748   -1.490576   -0.113131
      6          8           0       -0.652792    0.705443    0.048941
      7          8           0       -1.284668   -0.601173    0.182384
      8          1           0       -1.500567   -0.606391    1.131676
 ---------------------------------------------------------------------

 Alpha  occ. eigenvalues --  -20.54210 -20.53148 -11.24585 -11.16329  -1.48413
 Alpha  occ. eigenvalues --   -1.24116  -1.03382  -0.79872  -0.70460  -0.68972
 Alpha  occ. eigenvalues --   -0.64440  -0.58242  -0.54740  -0.51101  -0.48817
 Alpha  occ. eigenvalues --   -0.36397
 Alpha virt. eigenvalues --    0.19335   0.22794   0.28682   0.29689   0.33500
 Alpha virt. eigenvalues --    0.37178   0.49590   0.58641   0.88720   0.96548
 Alpha virt. eigenvalues --    1.01335   1.06994   1.10198   1.12022   1.23048

 Mulliken charges:
               1
     1  C    0.138559
     2  C   -0.509575
     3  H    0.259516
     4  H    0.222023
     5  H    0.251108
     6  O   -0.403224
     7  O   -0.373418
     8  H    0.415010
 Sum of Mulliken charges =   0.00000

 Dipole moment (field-independent basis, Debye):
    X=              1.1265    Y=             -0.1981    Z=              2.0347  Tot=              2.3342
 Quadrupole moment (field-independent basis, Debye-Ang):
   XX=            -21.9789   YY=            -22.3566   ZZ=            -22.8775
   XY=              1.9779   XZ=             -3.2937   YZ=             -1.0640

 Normal termination of Gaussian 09 at Fri Apr 12 17:47:00 2019.
