 Gaussian 09, Revision D.01,
 Gaussian 09:  AS64L-G09RevD.01 24-Apr-2013

 --------------------------------------------------------------------
 #p hf 3-21g scf=tight NoSymmetry guess=read opt=(tight,modredundant)
 --------------------------------------------------------------------

 -----------------------------------
 Geometry optimization at the 2D-PES
 -----------------------------------
 Symbolic Z-matrix:
 Charge =  0 Multiplicity = 1

 SCF Done:  E(RHF) =  -226.395935320     A.U. after   13 cycles
 SCF Done:  E(RHF) =  -226.395963544     A.U. after   12 cycles
 SCF Done:  E(RHF) =  -226.395969339     A.U. after   11 cycles
 SCF Done:  E(RHF) =  -226.395969494     A.U. after    9 cycles
 SCF Done:  E(RHF) =  -226.395969508     A.U. after    8 cycles
 SCF Done:  E(RHF) =  -226.395969510     A.U. after    6 cycles
 Optimization completed.
    -- Stationary point found.

                          Input orientation:
 ---------------------------------------------------------------------
 Center     Atomic      Atomic             Coordinates (Angstroms)
 Number     Number       Type             X           Y           Z
 ---------------------------------------------------------------------
      1          6           0        0.722151    0.634021    0.053521
      2          6           0        1.367491   -0.503914   -0.002324
      3          1           0        1.178378    1.598349    0.107010
      4          1           0        2.437456   -0.517068   -0.015673
      5          1           0        0.849266   -1.439959   -0.045869
      6          8           0       -0.674161    0.671928   -0.002903
      7          8           0       -1.064996    1.971043    0.560376
      8          1           0       -2.023549    1.828811    0.628796
 ---------------------------------------------------------------------

 Alpha  occ. eigenvalues --  -20.53504 -20.52583 -11.24228 -11.16315  -1.47564
 Alpha  occ. eigenvalues --   -1.24042  -1.02583  -0.79793  -0.70442  -0.67214
 Alpha  occ. eigenvalues --   -0.63585  -0.60015  -0.55388  -0.50506  -0.48038
 Alpha  occ. eigenvalues --   -0.35748
 Alpha virt. eigenvalues --    0.18913   0.23499   0.27732   0.32148   0.33907
 Alpha virt. eigenvalues --    0.36089   0.50141   0.57743   0.90302   0.97420
 Alpha virt. eigenvalues --    1.00154   1.07139   1.10940   1.12280   1.23376

 Mulliken charges:
               1
     1  C    0.173362
     2  C   -0.508553
     3  H    0.262509
     4  H    0.225868
     5  H    0.236305
     6  O   -0.421829
     7  O   -0.391087
     8  H    0.423425
 Sum of Mulliken charges =   0.00000

 Dipole moment (field-independent basis, Debye):
    X=             -0.3247    Y=              0.1206    Z=              0.3249  Tot=              0.4749
 Quadrupole moment (field-independent basis, Debye-Ang):
   XX=            -16.4720   YY=            -22.8033   ZZ=            -25.5947
   XY=             -2.2164   XZ=             -1.6388   YZ=              0.4782

 Normal termination of Gaussian 09 at Fri Apr 12 15:49:01 2019.
