 Gaussian 09, Revision D.01,
 Gaussian 09:  AS64L-G09RevD.01 24-Apr-2013

 --------------------------------------------------------------------
 #p hf 3-21g scf=tight NoSymmetry guess=read opt=(tight,modredundant)
 --------------------------------------------------------------------

 -----------------------------------
 Geometry optimization at the 2D-PES
 -----------------------------------
 Symbolic Z-matrix:
 Charge =  0 Multiplicity = 1

 SCF Done:  E(RHF) =  -226.388517704     A.U. after   13 cycles
 SCF Done:  E(RHF) =  -226.388533298     A.U. after   12 cycles
 SCF Done:  E(RHF) =  -226.388543312     A.U. after   10 cycles
 SCF Done:  E(RHF) =  -226.388543416     A.U. after    9 cycles
 SCF Done:  E(RHF) =  -226.388543427     A.U. after    7 cycles
 SCF Done:  E(RHF) =  -226.388543429     A.U. after    7 cycles
 Optimization completed.
    -- Stationary point found.

                          Input orientation:
 ---------------------------------------------------------------------
 Center     Atomic      Atomic             Coordinates (Angstroms)
 Number     Number       Type             X           Y           Z
 ---------------------------------------------------------------------
      1          6           0        0.744190    0.629306    0.052746
      2          6           0        1.379322   -0.512401    0.002264
      3          1           0        1.227895    1.584847    0.102735
      4          1           0        2.449321   -0.546260   -0.019150
      5          1           0        0.839465   -1.436195   -0.035547
      6          8           0       -0.661068    0.679159   -0.018149
      7          8           0       -1.162153    1.302164    1.214781
      8          1           0       -0.881990    2.231101    1.115389
 ---------------------------------------------------------------------

 Alpha  occ. eigenvalues --  -20.53288 -20.52364 -11.24588 -11.18172  -1.47193
 Alpha  occ. eigenvalues --   -1.23560  -1.03803  -0.80835  -0.69747  -0.69020
 Alpha  occ. eigenvalues --   -0.63733  -0.57132  -0.56874  -0.49369  -0.47539
 Alpha  occ. eigenvalues --   -0.38289
 Alpha virt. eigenvalues --    0.15787   0.24989   0.26675   0.30879   0.33241
 Alpha virt. eigenvalues --    0.35371   0.49556   0.56324   0.88671   0.96531
 Alpha virt. eigenvalues --    0.98752   1.06093   1.09793   1.10972   1.25356

 Mulliken charges:
               1
     1  C    0.121609
     2  C   -0.460739
     3  H    0.221305
     4  H    0.229062
     5  H    0.254147
     6  O   -0.388841
     7  O   -0.374309
     8  H    0.397766
 Sum of Mulliken charges =   0.00000

 Dipole moment (field-independent basis, Debye):
    X=              2.5432    Y=              1.6323    Z=              0.0033  Tot=              3.0220
 Quadrupole moment (field-independent basis, Debye-Ang):
   XX=            -24.1328   YY=            -15.1399   ZZ=            -26.2293
   XY=             -0.0067   XZ=              0.7370   YZ=              2.2250

 Normal termination of Gaussian 09 at Fri Apr 12 16:18:02 2019.
