 Gaussian 09, Revision D.01,
 Gaussian 09:  AS64L-G09RevD.01 24-Apr-2013

 --------------------------------------------------------------------
 #p hf 3-21g scf=tight NoSymmetry guess=read opt=(tight,modredundant)
 --------------------------------------------------------------------

 -----------------------------------
 Geometry optimization at the 2D-PES
 -----------------------------------
 Symbolic Z-matrix:
 Charge =  0 Multiplicity = 1

 SCF Done:  E(RHF) =  -226.383160952     A.U. after   13 cycles
 SCF Done:  E(RHF) =  -226.383175718     A.U. after   12 cycles
 SCF Done:  E(RHF) =  -226.383212439     A.U. after   12 cycles
 SCF Done:  E(RHF) =  -226.383212686     A.U. after   10 cycles
 SCF Done:  E(RHF) =  -226.383212765     A.U. after    9 cycles
 SCF Done:  E(RHF) =  -226.383212767     A.U. after    7 cycles
 Optimization completed.
    -- Stationary point found.

                          Input orientation:
 ---------------------------------------------------------------------
 Center     Atomic      Atomic             Coordinates (Angstroms)
 Number     Number       Type             X           Y           Z
 ---------------------------------------------------------------------
      1          6           0        0.749629    0.587832    0.037442
      2          6           0        1.431992   -0.530785   -0.035154
      3          1           0        1.196446    1.559365    0.066311
      4          1           0        2.501612   -0.509121   -0.036256
      5          1           0        0.956133   -1.487567   -0.120982
      6          8           0       -0.645041    0.690261    0.041784
      7          8           0       -1.287555   -0.359870    0.845364
      8          1           0       -0.546400   -0.784682    1.317401
 ---------------------------------------------------------------------

 Alpha  occ. eigenvalues --  -20.53887 -20.52832 -11.26166 -11.18841  -1.47745
 Alpha  occ. eigenvalues --   -1.24280  -1.05390  -0.81311  -0.72689  -0.68196
 Alpha  occ. eigenvalues --   -0.62695  -0.59003  -0.55716  -0.53782  -0.47274
 Alpha  occ. eigenvalues --   -0.38051
 Alpha virt. eigenvalues --    0.15414   0.23610   0.27597   0.28871   0.31537
 Alpha virt. eigenvalues --    0.36650   0.49820   0.56515   0.87452   0.95820
 Alpha virt. eigenvalues --    1.00340   1.04785   1.08020   1.11239   1.23059

 Mulliken charges:
               1
     1  C    0.120524
     2  C   -0.519785
     3  H    0.266115
     4  H    0.239022
     5  H    0.240022
     6  O   -0.386581
     7  O   -0.365229
     8  H    0.405912
 Sum of Mulliken charges =   0.00000

 Dipole moment (field-independent basis, Debye):
    X=              3.3164    Y=             -0.9335    Z=              1.0301  Tot=              3.5959
 Quadrupole moment (field-independent basis, Debye-Ang):
   XX=            -25.6591   YY=            -21.1694   ZZ=            -23.5155
   XY=              1.4690   XZ=              0.6668   YZ=             -1.3329

 Normal termination of Gaussian 09 at Fri Apr 12 17:21:57 2019.
