 Gaussian 09, Revision D.01,
 Gaussian 09:  AS64L-G09RevD.01 24-Apr-2013

 --------------------------------------------------------------------
 #p hf 3-21g scf=tight NoSymmetry guess=read opt=(tight,modredundant)
 --------------------------------------------------------------------

 -----------------------------------
 Geometry optimization at the 2D-PES
 -----------------------------------
 Symbolic Z-matrix:
 Charge =  0 Multiplicity = 1

 SCF Done:  E(RHF) =  -226.392922380     A.U. after   13 cycles
 SCF Done:  E(RHF) =  -226.392928122     A.U. after   11 cycles
 SCF Done:  E(RHF) =  -226.392932031     A.U. after   10 cycles
 SCF Done:  E(RHF) =  -226.392932083     A.U. after    8 cycles
 SCF Done:  E(RHF) =  -226.392932086     A.U. after    7 cycles
 Optimization completed.
    -- Stationary point found.

                          Input orientation:
 ---------------------------------------------------------------------
 Center     Atomic      Atomic             Coordinates (Angstroms)
 Number     Number       Type             X           Y           Z
 ---------------------------------------------------------------------
      1          6           0        0.734906    0.596801    0.058868
      2          6           0        1.397314   -0.527623   -0.024842
      3          1           0        1.193773    1.563623    0.090664
      4          1           0        2.467979   -0.524436   -0.030225
      5          1           0        0.893471   -1.471247   -0.054506
      6          8           0       -0.665552    0.701723    0.025729
      7          8           0       -1.228674   -0.251772    0.993678
      8          1           0       -1.945592    0.296129    1.356168
 ---------------------------------------------------------------------

 Alpha  occ. eigenvalues --  -20.52685 -20.52011 -11.23742 -11.16763  -1.46615
 Alpha  occ. eigenvalues --   -1.23218  -1.02919  -0.79073  -0.70900  -0.65253
 Alpha  occ. eigenvalues --   -0.63578  -0.61070  -0.54606  -0.49691  -0.46039
 Alpha  occ. eigenvalues --   -0.36849
 Alpha virt. eigenvalues --    0.16775   0.25560   0.29282   0.30557   0.32928
 Alpha virt. eigenvalues --    0.37162   0.50198   0.57623   0.88939   0.97482
 Alpha virt. eigenvalues --    0.99615   1.07123   1.10623   1.12860   1.23478

 Mulliken charges:
               1
     1  C    0.137593
     2  C   -0.469658
     3  H    0.244638
     4  H    0.222703
     5  H    0.252905
     6  O   -0.419424
     7  O   -0.385881
     8  H    0.417122
 Sum of Mulliken charges =   0.00000

 Dipole moment (field-independent basis, Debye):
    X=              0.3521    Y=              0.8064    Z=              1.0460  Tot=              1.3669
 Quadrupole moment (field-independent basis, Debye-Ang):
   XX=            -17.9582   YY=            -22.2719   ZZ=            -23.7247
   XY=             -0.6466   XZ=             -3.2948   YZ=              1.7375

 Normal termination of Gaussian 09 at Fri Apr 12 17:09:27 2019.
