 Gaussian 09, Revision D.01,
 Gaussian 09:  AS64L-G09RevD.01 24-Apr-2013

 --------------------------------------------------------------------
 #p hf 3-21g scf=tight NoSymmetry guess=read opt=(tight,modredundant)
 --------------------------------------------------------------------

 -----------------------------------
 Geometry optimization at the 2D-PES
 -----------------------------------
 Symbolic Z-matrix:
 Charge =  0 Multiplicity = 1

 SCF Done:  E(RHF) =  -226.393035119     A.U. after   12 cycles
 SCF Done:  E(RHF) =  -226.393044363     A.U. after   11 cycles
 SCF Done:  E(RHF) =  -226.393054121     A.U. after   10 cycles
 SCF Done:  E(RHF) =  -226.393054162     A.U. after    8 cycles
 SCF Done:  E(RHF) =  -226.393054164     A.U. after    7 cycles
 Optimization completed.
    -- Stationary point found.

                          Input orientation:
 ---------------------------------------------------------------------
 Center     Atomic      Atomic             Coordinates (Angstroms)
 Number     Number       Type             X           Y           Z
 ---------------------------------------------------------------------
      1          6           0        0.736235    0.636822    0.026552
      2          6           0        1.372779   -0.506160   -0.013765
      3          1           0        1.198354    1.597134    0.101915
      4          1           0        2.442284   -0.529270    0.018560
      5          1           0        0.847803   -1.437833   -0.070815
      6          8           0       -0.668499    0.678110    0.033669
      7          8           0       -1.077812    2.066071   -0.160237
      8          1           0       -1.141988    2.119559   -1.130795
 ---------------------------------------------------------------------

 Alpha  occ. eigenvalues --  -20.53987 -20.53262 -11.24646 -11.16893  -1.48361
 Alpha  occ. eigenvalues --   -1.24137  -1.03236  -0.80240  -0.72236  -0.66265
 Alpha  occ. eigenvalues --   -0.65243  -0.58185  -0.54985  -0.51870  -0.48657
 Alpha  occ. eigenvalues --   -0.36541
 Alpha virt. eigenvalues --    0.18410   0.22541   0.27191   0.31673   0.33626
 Alpha virt. eigenvalues --    0.35659   0.49436   0.57293   0.89804   0.96622
 Alpha virt. eigenvalues --    0.99670   1.05946   1.10390   1.11337   1.24250

 Mulliken charges:
               1
     1  C    0.137981
     2  C   -0.504542
     3  H    0.258772
     4  H    0.228351
     5  H    0.241679
     6  O   -0.397737
     7  O   -0.374271
     8  H    0.409766
 Sum of Mulliken charges =   0.00000

 Dipole moment (field-independent basis, Debye):
    X=              1.6012    Y=              0.4737    Z=             -2.0495  Tot=              2.6436
 Quadrupole moment (field-independent basis, Debye-Ang):
   XX=            -22.9120   YY=            -21.1618   ZZ=            -22.8689
   XY=              0.7948   XZ=              2.7260   YZ=             -4.3237

 Normal termination of Gaussian 09 at Fri Apr 12 15:35:54 2019.
