 Gaussian 09, Revision D.01,
 Gaussian 09:  AS64L-G09RevD.01 24-Apr-2013

 --------------------------------------------------------------------
 #p hf 3-21g scf=tight NoSymmetry guess=read opt=(tight,modredundant)
 --------------------------------------------------------------------

 -----------------------------------
 Geometry optimization at the 2D-PES
 -----------------------------------
 Symbolic Z-matrix:
 Charge =  0 Multiplicity = 1

 SCF Done:  E(RHF) =  -226.397068933     A.U. after   13 cycles
 SCF Done:  E(RHF) =  -226.397070654     A.U. after   11 cycles
 SCF Done:  E(RHF) =  -226.397073163     A.U. after   10 cycles
 SCF Done:  E(RHF) =  -226.397073192     A.U. after    8 cycles
 SCF Done:  E(RHF) =  -226.397073196     A.U. after    7 cycles
 Optimization completed.
    -- Stationary point found.

                          Input orientation:
 ---------------------------------------------------------------------
 Center     Atomic      Atomic             Coordinates (Angstroms)
 Number     Number       Type             X           Y           Z
 ---------------------------------------------------------------------
      1          6           0        0.733514    0.574895    0.055649
      2          6           0        1.416300   -0.536613   -0.042523
      3          1           0        1.170988    1.551552    0.088835
      4          1           0        2.485963   -0.502825   -0.060577
      5          1           0        0.936467   -1.490164   -0.080815
      6          8           0       -0.654779    0.711024    0.052446
      7          8           0       -1.264628   -0.574388    0.397737
      8          1           0       -2.073028   -0.249952    0.828208
 ---------------------------------------------------------------------

 Alpha  occ. eigenvalues --  -20.53668 -20.52588 -11.24101 -11.15822  -1.47672
 Alpha  occ. eigenvalues --   -1.23927  -1.02725  -0.79128  -0.71657  -0.65407
 Alpha  occ. eigenvalues --   -0.63384  -0.61921  -0.53851  -0.50313  -0.48043
 Alpha  occ. eigenvalues --   -0.35683
 Alpha virt. eigenvalues --    0.19370   0.23590   0.28739   0.30502   0.34085
 Alpha virt. eigenvalues --    0.37384   0.50199   0.58961   0.89298   0.97420
 Alpha virt. eigenvalues --    1.00886   1.07558   1.10803   1.12935   1.23468

 Mulliken charges:
               1
     1  C    0.153099
     2  C   -0.501041
     3  H    0.255203
     4  H    0.218857
     5  H    0.255133
     6  O   -0.420546
     7  O   -0.383989
     8  H    0.423284
 Sum of Mulliken charges =   0.00000

 Dipole moment (field-independent basis, Debye):
    X=             -0.1170    Y=              0.4384    Z=              1.0432  Tot=              1.1377
 Quadrupole moment (field-independent basis, Debye-Ang):
   XX=            -17.1373   YY=            -22.9475   ZZ=            -24.5645
   XY=              1.1669   XZ=             -2.8297   YZ=              0.2598

 Normal termination of Gaussian 09 at Fri Apr 12 17:38:03 2019.
