 Gaussian 09, Revision D.01,
 Gaussian 09:  AS64L-G09RevD.01 24-Apr-2013

 --------------------------------------------------------------------
 #p hf 3-21g scf=tight NoSymmetry guess=read opt=(tight,modredundant)
 --------------------------------------------------------------------

 -----------------------------------
 Geometry optimization at the 2D-PES
 -----------------------------------
 Symbolic Z-matrix:
 Charge =  0 Multiplicity = 1

 SCF Done:  E(RHF) =  -226.391236380     A.U. after   12 cycles
 SCF Done:  E(RHF) =  -226.391246459     A.U. after   11 cycles
 SCF Done:  E(RHF) =  -226.391251979     A.U. after   10 cycles
 SCF Done:  E(RHF) =  -226.391252042     A.U. after    9 cycles
 SCF Done:  E(RHF) =  -226.391252053     A.U. after    6 cycles
 Optimization completed.
    -- Stationary point found.

                          Input orientation:
 ---------------------------------------------------------------------
 Center     Atomic      Atomic             Coordinates (Angstroms)
 Number     Number       Type             X           Y           Z
 ---------------------------------------------------------------------
      1          6           0        0.733658    0.622355    0.041490
      2          6           0        1.376805   -0.514809   -0.003726
      3          1           0        1.207633    1.579686    0.115714
      4          1           0        2.447408   -0.541397    0.009168
      5          1           0        0.846154   -1.443202   -0.060333
      6          8           0       -0.676282    0.672553   -0.017697
      7          8           0       -1.173104    0.597121    1.366789
      8          1           0       -1.512940    1.501025    1.488412
 ---------------------------------------------------------------------

 Alpha  occ. eigenvalues --  -20.52417 -20.51725 -11.23707 -11.17833  -1.46306
 Alpha  occ. eigenvalues --   -1.22897  -1.03292  -0.79601  -0.69885  -0.67343
 Alpha  occ. eigenvalues --   -0.64022  -0.58216  -0.55747  -0.48464  -0.45610
 Alpha  occ. eigenvalues --   -0.38606
 Alpha virt. eigenvalues --    0.15384   0.26637   0.28886   0.30902   0.32216
 Alpha virt. eigenvalues --    0.36274   0.49331   0.56592   0.88536   0.97392
 Alpha virt. eigenvalues --    0.98412   1.06739   1.10135   1.12442   1.23844

 Mulliken charges:
               1
     1  C    0.123503
     2  C   -0.446156
     3  H    0.227385
     4  H    0.226569
     5  H    0.253100
     6  O   -0.405782
     7  O   -0.384927
     8  H    0.406307
 Sum of Mulliken charges =   0.00000

 Dipole moment (field-independent basis, Debye):
    X=              1.3558    Y=              1.5374    Z=              0.5474  Tot=              2.1216
 Quadrupole moment (field-independent basis, Debye-Ang):
   XX=            -20.9905   YY=            -18.0150   ZZ=            -24.8882
   XY=             -2.4691   XZ=             -1.4895   YZ=              3.4916

 Normal termination of Gaussian 09 at Fri Apr 12 16:38:10 2019.
