 Gaussian 09, Revision D.01,
 Gaussian 09:  AS64L-G09RevD.01 24-Apr-2013

 --------------------------------------------------------------------
 #p hf 3-21g scf=tight NoSymmetry guess=read opt=(tight,modredundant)
 --------------------------------------------------------------------

 -----------------------------------
 Geometry optimization at the 2D-PES
 -----------------------------------
 Symbolic Z-matrix:
 Charge =  0 Multiplicity = 1

 SCF Done:  E(RHF) =  -226.393392291     A.U. after   13 cycles
 SCF Done:  E(RHF) =  -226.393394745     A.U. after   11 cycles
 SCF Done:  E(RHF) =  -226.393396924     A.U. after   10 cycles
 SCF Done:  E(RHF) =  -226.393396949     A.U. after    8 cycles
 SCF Done:  E(RHF) =  -226.393396950     A.U. after    6 cycles
 Optimization completed.
    -- Stationary point found.

                          Input orientation:
 ---------------------------------------------------------------------
 Center     Atomic      Atomic             Coordinates (Angstroms)
 Number     Number       Type             X           Y           Z
 ---------------------------------------------------------------------
      1          6           0        0.732602    0.598026    0.056801
      2          6           0        1.394100   -0.527347   -0.024477
      3          1           0        1.191879    1.564244    0.093034
      4          1           0        2.464731   -0.525438   -0.025978
      5          1           0        0.889317   -1.470340   -0.054616
      6          8           0       -0.666249    0.702745    0.021670
      7          8           0       -1.220983   -0.253864    0.994266
      8          1           0       -2.101955    0.141682    1.108662
 ---------------------------------------------------------------------

 Alpha  occ. eigenvalues --  -20.52623 -20.51970 -11.23706 -11.16693  -1.46503
 Alpha  occ. eigenvalues --   -1.23241  -1.02843  -0.78891  -0.70967  -0.64771
 Alpha  occ. eigenvalues --   -0.64552  -0.60299  -0.54344  -0.50534  -0.45697
 Alpha  occ. eigenvalues --   -0.36649
 Alpha virt. eigenvalues --    0.16801   0.25804   0.29273   0.30612   0.32951
 Alpha virt. eigenvalues --    0.37210   0.50282   0.57673   0.89088   0.97656
 Alpha virt. eigenvalues --    0.99578   1.07258   1.10699   1.12572   1.23958

 Mulliken charges:
               1
     1  C    0.142051
     2  C   -0.470266
     3  H    0.245751
     4  H    0.222616
     5  H    0.251613
     6  O   -0.423012
     7  O   -0.386948
     8  H    0.418196
 Sum of Mulliken charges =   0.00000

 Dipole moment (field-independent basis, Debye):
    X=             -0.0037    Y=              0.4924    Z=              0.5206  Tot=              0.7166
 Quadrupole moment (field-independent basis, Debye-Ang):
   XX=            -16.4481   YY=            -22.4377   ZZ=            -25.1104
   XY=              0.0218   XZ=             -2.5823   YZ=              1.1741

 Normal termination of Gaussian 09 at Fri Apr 12 17:09:56 2019.
