 Gaussian 09, Revision D.01,
 Gaussian 09:  AS64L-G09RevD.01 24-Apr-2013

 --------------------------------------------------------------------
 #p hf 3-21g scf=tight NoSymmetry guess=read opt=(tight,modredundant)
 --------------------------------------------------------------------

 -----------------------------------
 Geometry optimization at the 2D-PES
 -----------------------------------
 Symbolic Z-matrix:
 Charge =  0 Multiplicity = 1

 SCF Done:  E(RHF) =  -226.395789700     A.U. after   13 cycles
 SCF Done:  E(RHF) =  -226.395795244     A.U. after   11 cycles
 SCF Done:  E(RHF) =  -226.395799657     A.U. after   10 cycles
 SCF Done:  E(RHF) =  -226.395799723     A.U. after    8 cycles
 SCF Done:  E(RHF) =  -226.395799725     A.U. after    7 cycles
 Optimization completed.
    -- Stationary point found.

                          Input orientation:
 ---------------------------------------------------------------------
 Center     Atomic      Atomic             Coordinates (Angstroms)
 Number     Number       Type             X           Y           Z
 ---------------------------------------------------------------------
      1          6           0        0.730598    0.636438    0.052001
      2          6           0        1.369106   -0.504911   -0.004418
      3          1           0        1.190682    1.598358    0.110994
      4          1           0        2.438989   -0.524773   -0.019403
      5          1           0        0.844249   -1.437420   -0.042298
      6          8           0       -0.668851    0.678041    0.000200
      7          8           0       -1.075578    1.969904    0.557457
      8          1           0       -1.678970    2.271544   -0.142306
 ---------------------------------------------------------------------

 Alpha  occ. eigenvalues --  -20.53674 -20.52866 -11.24281 -11.16442  -1.47903
 Alpha  occ. eigenvalues --   -1.24064  -1.02732  -0.79769  -0.70700  -0.67852
 Alpha  occ. eigenvalues --   -0.65060  -0.56718  -0.55193  -0.52185  -0.48260
 Alpha  occ. eigenvalues --   -0.35949
 Alpha virt. eigenvalues --    0.18699   0.23339   0.27784   0.32078   0.33632
 Alpha virt. eigenvalues --    0.35959   0.49737   0.57680   0.90354   0.97111
 Alpha virt. eigenvalues --    1.00437   1.06512   1.10971   1.12771   1.22228

 Mulliken charges:
               1
     1  C    0.163083
     2  C   -0.505620
     3  H    0.256245
     4  H    0.225999
     5  H    0.239937
     6  O   -0.414201
     7  O   -0.383467
     8  H    0.418023
 Sum of Mulliken charges =   0.00000

 Dipole moment (field-independent basis, Debye):
    X=              0.4520    Y=              1.0317    Z=             -1.3413  Tot=              1.7516
 Quadrupole moment (field-independent basis, Debye-Ang):
   XX=            -19.5177   YY=            -18.7807   ZZ=            -26.3295
   XY=             -2.5282   XZ=              1.9057   YZ=             -2.8438

 Normal termination of Gaussian 09 at Fri Apr 12 15:50:43 2019.
