 Gaussian 09, Revision D.01,
 Gaussian 09:  AS64L-G09RevD.01 24-Apr-2013

 --------------------------------------------------------------------
 #p hf 3-21g scf=tight NoSymmetry guess=read opt=(tight,modredundant)
 --------------------------------------------------------------------

 -----------------------------------
 Geometry optimization at the 2D-PES
 -----------------------------------
 Symbolic Z-matrix:
 Charge =  0 Multiplicity = 1

 SCF Done:  E(RHF) =  -226.384013092     A.U. after   13 cycles
 SCF Done:  E(RHF) =  -226.384037189     A.U. after   12 cycles
 SCF Done:  E(RHF) =  -226.384058495     A.U. after   12 cycles
 SCF Done:  E(RHF) =  -226.384058687     A.U. after    9 cycles
 SCF Done:  E(RHF) =  -226.384058727     A.U. after    9 cycles
 SCF Done:  E(RHF) =  -226.384058729     A.U. after    6 cycles
 Optimization completed.
    -- Stationary point found.

                          Input orientation:
 ---------------------------------------------------------------------
 Center     Atomic      Atomic             Coordinates (Angstroms)
 Number     Number       Type             X           Y           Z
 ---------------------------------------------------------------------
      1          6           0        0.751697    0.636258    0.016981
      2          6           0        1.382603   -0.510117   -0.013441
      3          1           0        1.230155    1.591262    0.102690
      4          1           0        2.450720   -0.547172    0.048394
      5          1           0        0.844443   -1.433526   -0.080544
      6          8           0       -0.651826    0.677421    0.043745
      7          8           0       -1.129792    1.768551   -0.821592
      8          1           0       -0.450686    1.840415   -1.517832
 ---------------------------------------------------------------------

 Alpha  occ. eigenvalues --  -20.53705 -20.52588 -11.25249 -11.18627  -1.47441
 Alpha  occ. eigenvalues --   -1.24060  -1.04371  -0.81465  -0.72239  -0.66726
 Alpha  occ. eigenvalues --   -0.63006  -0.59278  -0.55364  -0.52919  -0.46795
 Alpha  occ. eigenvalues --   -0.38023
 Alpha virt. eigenvalues --    0.15047   0.24569   0.27147   0.30548   0.32208
 Alpha virt. eigenvalues --    0.35306   0.49042   0.56118   0.88237   0.96303
 Alpha virt. eigenvalues --    0.98583   1.06223   1.09451   1.10718   1.24353

 Mulliken charges:
               1
     1  C    0.089716
     2  C   -0.472866
     3  H    0.245972
     4  H    0.233106
     5  H    0.253424
     6  O   -0.376555
     7  O   -0.372834
     8  H    0.400038
 Sum of Mulliken charges =   0.00000

 Dipole moment (field-independent basis, Debye):
    X=              3.3113    Y=              0.0388    Z=             -1.4739  Tot=              3.6248
 Quadrupole moment (field-independent basis, Debye-Ang):
   XX=            -25.0914   YY=            -21.4733   ZZ=            -22.1836
   XY=              3.4560   XZ=             -0.1796   YZ=             -2.7147

 Normal termination of Gaussian 09 at Fri Apr 12 15:24:26 2019.
