 Gaussian 09, Revision D.01,
 Gaussian 09:  AS64L-G09RevD.01 24-Apr-2013

 --------------------------------------------------------------------
 #p hf 3-21g scf=tight NoSymmetry guess=read opt=(tight,modredundant)
 --------------------------------------------------------------------

 -----------------------------------
 Geometry optimization at the 2D-PES
 -----------------------------------
 Symbolic Z-matrix:
 Charge =  0 Multiplicity = 1

 SCF Done:  E(RHF) =  -226.381614527     A.U. after   13 cycles
 SCF Done:  E(RHF) =  -226.381664602     A.U. after   12 cycles
 SCF Done:  E(RHF) =  -226.381665694     A.U. after   10 cycles
 SCF Done:  E(RHF) =  -226.381666305     A.U. after   10 cycles
 SCF Done:  E(RHF) =  -226.381666329     A.U. after    9 cycles
 SCF Done:  E(RHF) =  -226.381666331     A.U. after    6 cycles
 Optimization completed.
    -- Stationary point found.

                          Input orientation:
 ---------------------------------------------------------------------
 Center     Atomic      Atomic             Coordinates (Angstroms)
 Number     Number       Type             X           Y           Z
 ---------------------------------------------------------------------
      1          6           0        0.741291    0.559357    0.008311
      2          6           0        1.469387   -0.531199    0.028402
      3          1           0        1.165420    1.539002    0.079643
      4          1           0        2.533510   -0.445846    0.095162
      5          1           0        1.084663   -1.529742   -0.022251
      6          8           0       -0.641980    0.695855   -0.037242
      7          8           0       -1.375372   -0.474110   -0.517543
      8          1           0       -0.767737   -1.223865   -0.409132
 ---------------------------------------------------------------------

 Alpha  occ. eigenvalues --  -20.54737 -20.53346 -11.26549 -11.18433  -1.48545
 Alpha  occ. eigenvalues --   -1.25113  -1.05443  -0.81492  -0.73592  -0.68129
 Alpha  occ. eigenvalues --   -0.64582  -0.58732  -0.54621  -0.53989  -0.49118
 Alpha  occ. eigenvalues --   -0.37413
 Alpha virt. eigenvalues --    0.17381   0.21011   0.26684   0.27372   0.36135
 Alpha virt. eigenvalues --    0.37041   0.49481   0.60694   0.87970   0.95182
 Alpha virt. eigenvalues --    1.01218   1.05308   1.07778   1.10733   1.24126

 Mulliken charges:
               1
     1  C    0.148909
     2  C   -0.533996
     3  H    0.273740
     4  H    0.243378
     5  H    0.205122
     6  O   -0.390644
     7  O   -0.362589
     8  H    0.416080
 Sum of Mulliken charges =   0.00000

 Dipole moment (field-independent basis, Debye):
    X=              2.8536    Y=             -1.4372    Z=              0.2051  Tot=              3.2017
 Quadrupole moment (field-independent basis, Debye-Ang):
   XX=            -25.6406   YY=            -19.5272   ZZ=            -26.0514
   XY=              2.3848   XZ=             -0.5709   YZ=              0.6968

 Normal termination of Gaussian 09 at Fri Apr 12 14:57:08 2019.
