 Gaussian 09, Revision D.01,
 Gaussian 09:  AS64L-G09RevD.01 24-Apr-2013

 --------------------------------------------------------------------
 #p hf 3-21g scf=tight NoSymmetry guess=read opt=(tight,modredundant)
 --------------------------------------------------------------------

 -----------------------------------
 Geometry optimization at the 2D-PES
 -----------------------------------
 Symbolic Z-matrix:
 Charge =  0 Multiplicity = 1

 SCF Done:  E(RHF) =  -226.396064386     A.U. after   13 cycles
 SCF Done:  E(RHF) =  -226.396064520     A.U. after    9 cycles
 SCF Done:  E(RHF) =  -226.396064668     A.U. after    8 cycles
 SCF Done:  E(RHF) =  -226.396064670     A.U. after    6 cycles
 Optimization completed.
    -- Stationary point found.

                          Input orientation:
 ---------------------------------------------------------------------
 Center     Atomic      Atomic             Coordinates (Angstroms)
 Number     Number       Type             X           Y           Z
 ---------------------------------------------------------------------
      1          6           0        0.722007    0.634034    0.053556
      2          6           0        1.367367   -0.503862   -0.002564
      3          1           0        1.177805    1.598557    0.107375
      4          1           0        2.437327   -0.516968   -0.015923
      5          1           0        0.849090   -1.439886   -0.045377
      6          8           0       -0.674098    0.671955   -0.003218
      7          8           0       -1.064500    1.970977    0.560559
      8          1           0       -2.029006    1.893322    0.474613
 ---------------------------------------------------------------------

 Alpha  occ. eigenvalues --  -20.53505 -20.52589 -11.24215 -11.16299  -1.47566
 Alpha  occ. eigenvalues --   -1.24047  -1.02566  -0.79786  -0.70323  -0.67356
 Alpha  occ. eigenvalues --   -0.63884  -0.59514  -0.55402  -0.50727  -0.47996
 Alpha  occ. eigenvalues --   -0.35704
 Alpha virt. eigenvalues --    0.18873   0.23556   0.27778   0.32173   0.33874
 Alpha virt. eigenvalues --    0.36110   0.50148   0.57759   0.90317   0.97429
 Alpha virt. eigenvalues --    1.00196   1.07101   1.10950   1.12235   1.23524

 Mulliken charges:
               1
     1  C    0.173629
     2  C   -0.508404
     3  H    0.262178
     4  H    0.225773
     5  H    0.236586
     6  O   -0.422171
     7  O   -0.390972
     8  H    0.423381
 Sum of Mulliken charges =   0.00000

 Dipole moment (field-independent basis, Debye):
    X=             -0.3381    Y=              0.2596    Z=             -0.0141  Tot=              0.4265
 Quadrupole moment (field-independent basis, Debye-Ang):
   XX=            -16.4201   YY=            -22.2644   ZZ=            -25.9819
   XY=             -2.5562   XZ=             -0.9006   YZ=             -0.0870

 Normal termination of Gaussian 09 at Fri Apr 12 15:49:23 2019.
