 Gaussian 09, Revision D.01,
 Gaussian 09:  AS64L-G09RevD.01 24-Apr-2013

 --------------------------------------------------------------------
 #p hf 3-21g scf=tight NoSymmetry guess=read opt=(tight,modredundant)
 --------------------------------------------------------------------

 -----------------------------------
 Geometry optimization at the 2D-PES
 -----------------------------------
 Symbolic Z-matrix:
 Charge =  0 Multiplicity = 1

 SCF Done:  E(RHF) =  -226.393707457     A.U. after   13 cycles
 SCF Done:  E(RHF) =  -226.393713063     A.U. after   11 cycles
 SCF Done:  E(RHF) =  -226.393716030     A.U. after   10 cycles
 SCF Done:  E(RHF) =  -226.393716070     A.U. after    8 cycles
 SCF Done:  E(RHF) =  -226.393716076     A.U. after    7 cycles
 SCF Done:  E(RHF) =  -226.393716077     A.U. after    6 cycles
 Optimization completed.
    -- Stationary point found.

                          Input orientation:
 ---------------------------------------------------------------------
 Center     Atomic      Atomic             Coordinates (Angstroms)
 Number     Number       Type             X           Y           Z
 ---------------------------------------------------------------------
      1          6           0        0.723796    0.636155    0.025108
      2          6           0        1.369282   -0.501424   -0.025282
      3          1           0        1.182337    1.600592    0.056880
      4          1           0        2.439236   -0.524938    0.007473
      5          1           0        0.844886   -1.434582   -0.069740
      6          8           0       -0.684417    0.661283    0.053379
      7          8           0       -1.101847    1.415143   -1.137962
      8          1           0       -1.337080    0.687920   -1.740969
 ---------------------------------------------------------------------

 Alpha  occ. eigenvalues --  -20.53138 -20.52207 -11.24324 -11.17998  -1.47172
 Alpha  occ. eigenvalues --   -1.23416  -1.03639  -0.79858  -0.71893  -0.65869
 Alpha  occ. eigenvalues --   -0.63291  -0.60845  -0.55861  -0.48026  -0.47433
 Alpha  occ. eigenvalues --   -0.38556
 Alpha virt. eigenvalues --    0.16167   0.25683   0.27941   0.30945   0.32307
 Alpha virt. eigenvalues --    0.35798   0.48993   0.56493   0.88987   0.96539
 Alpha virt. eigenvalues --    0.98722   1.06586   1.09901   1.11817   1.23339

 Mulliken charges:
               1
     1  C    0.134850
     2  C   -0.477638
     3  H    0.249835
     4  H    0.230509
     5  H    0.239713
     6  O   -0.400393
     7  O   -0.385486
     8  H    0.408609
 Sum of Mulliken charges =   0.00000

 Dipole moment (field-independent basis, Debye):
    X=              1.4698    Y=             -1.4889    Z=             -1.4400  Tot=              2.5399
 Quadrupole moment (field-independent basis, Debye-Ang):
   XX=            -21.8572   YY=            -25.1482   ZZ=            -21.8567
   XY=              2.6534   XZ=              2.7047   YZ=              1.0147

 Normal termination of Gaussian 09 at Fri Apr 12 15:14:25 2019.
