 Gaussian 09, Revision D.01,
 Gaussian 09:  AS64L-G09RevD.01 24-Apr-2013

 --------------------------------------------------------------------
 #p hf 3-21g scf=tight NoSymmetry guess=read opt=(tight,modredundant)
 --------------------------------------------------------------------

 -----------------------------------
 Geometry optimization at the 2D-PES
 -----------------------------------
 Symbolic Z-matrix:
 Charge =  0 Multiplicity = 1

 SCF Done:  E(RHF) =  -226.389152519     A.U. after   13 cycles
 SCF Done:  E(RHF) =  -226.389166013     A.U. after   13 cycles
 SCF Done:  E(RHF) =  -226.389181471     A.U. after   12 cycles
 SCF Done:  E(RHF) =  -226.389181552     A.U. after    9 cycles
 SCF Done:  E(RHF) =  -226.389181566     A.U. after    8 cycles
 SCF Done:  E(RHF) =  -226.389181567     A.U. after    7 cycles
 Optimization completed.
    -- Stationary point found.

                          Input orientation:
 ---------------------------------------------------------------------
 Center     Atomic      Atomic             Coordinates (Angstroms)
 Number     Number       Type             X           Y           Z
 ---------------------------------------------------------------------
      1          6           0        0.743636    0.635534    0.033061
      2          6           0        1.375390   -0.509635   -0.011224
      3          1           0        1.219715    1.589833    0.113032
      4          1           0        2.445142   -0.537210    0.002048
      5          1           0        0.844760   -1.438471   -0.059603
      6          8           0       -0.661096    0.683925    0.028417
      7          8           0       -1.089557    2.078679    0.083965
      8          1           0       -0.836753    2.414454   -0.795884
 ---------------------------------------------------------------------

 Alpha  occ. eigenvalues --  -20.54111 -20.53424 -11.25034 -11.17127  -1.48447
 Alpha  occ. eigenvalues --   -1.24274  -1.03543  -0.80826  -0.72077  -0.66663
 Alpha  occ. eigenvalues --   -0.65481  -0.57429  -0.54630  -0.53256  -0.48746
 Alpha  occ. eigenvalues --   -0.36591
 Alpha virt. eigenvalues --    0.18209   0.22063   0.26333   0.31535   0.33584
 Alpha virt. eigenvalues --    0.35459   0.49639   0.56971   0.89361   0.96543
 Alpha virt. eigenvalues --    0.99233   1.06150   1.10094   1.10903   1.24844

 Mulliken charges:
               1
     1  C    0.132416
     2  C   -0.501324
     3  H    0.249085
     4  H    0.229068
     5  H    0.245078
     6  O   -0.391071
     7  O   -0.367429
     8  H    0.404178
 Sum of Mulliken charges =   0.00000

 Dipole moment (field-independent basis, Debye):
    X=              2.2627    Y=              0.9779    Z=             -1.7731  Tot=              3.0364
 Quadrupole moment (field-independent basis, Debye-Ang):
   XX=            -24.1712   YY=            -18.4785   ZZ=            -24.3065
   XY=              1.6718   XZ=              1.7598   YZ=             -4.3151

 Normal termination of Gaussian 09 at Fri Apr 12 15:40:54 2019.
