 Gaussian 09, Revision D.01,
 Gaussian 09:  AS64L-G09RevD.01 24-Apr-2013

 --------------------------------------------------------------------
 #p hf 3-21g scf=tight NoSymmetry guess=read opt=(tight,modredundant)
 --------------------------------------------------------------------

 -----------------------------------
 Geometry optimization at the 2D-PES
 -----------------------------------
 Symbolic Z-matrix:
 Charge =  0 Multiplicity = 1

 SCF Done:  E(RHF) =  -226.392243850     A.U. after   13 cycles
 SCF Done:  E(RHF) =  -226.392244692     A.U. after   11 cycles
 SCF Done:  E(RHF) =  -226.392245603     A.U. after   10 cycles
 SCF Done:  E(RHF) =  -226.392245610     A.U. after    7 cycles
 Optimization completed.
    -- Stationary point found.

                          Input orientation:
 ---------------------------------------------------------------------
 Center     Atomic      Atomic             Coordinates (Angstroms)
 Number     Number       Type             X           Y           Z
 ---------------------------------------------------------------------
      1          6           0        0.729206    0.613980    0.044810
      2          6           0        1.379051   -0.519320   -0.012614
      3          1           0        1.198465    1.573528    0.108848
      4          1           0        2.449654   -0.535906    0.004099
      5          1           0        0.859332   -1.454220   -0.060224
      6          8           0       -0.675520    0.686247   -0.007769
      7          8           0       -1.184238    0.128633    1.262675
      8          1           0       -2.118633    0.384378    1.173949
 ---------------------------------------------------------------------

 Alpha  occ. eigenvalues --  -20.52104 -20.51544 -11.23495 -11.17345  -1.45873
 Alpha  occ. eigenvalues --   -1.22873  -1.02971  -0.78859  -0.70167  -0.66409
 Alpha  occ. eigenvalues --   -0.64218  -0.58382  -0.54694  -0.50969  -0.44117
 Alpha  occ. eigenvalues --   -0.37707
 Alpha virt. eigenvalues --    0.15694   0.27220   0.29448   0.30550   0.32261
 Alpha virt. eigenvalues --    0.36982   0.49954   0.57044   0.88990   0.97657
 Alpha virt. eigenvalues --    0.99254   1.07132   1.10517   1.12375   1.23721

 Mulliken charges:
               1
     1  C    0.136872
     2  C   -0.451174
     3  H    0.238408
     4  H    0.225402
     5  H    0.248624
     6  O   -0.422945
     7  O   -0.389748
     8  H    0.414561
 Sum of Mulliken charges =   0.00000

 Dipole moment (field-independent basis, Debye):
    X=              0.0535    Y=              0.1787    Z=              0.1346  Tot=              0.2300
 Quadrupole moment (field-independent basis, Debye-Ang):
   XX=            -16.0317   YY=            -22.0178   ZZ=            -26.0664
   XY=             -0.2561   XZ=             -2.2388   YZ=              0.9859

 Normal termination of Gaussian 09 at Fri Apr 12 16:53:42 2019.
