 Gaussian 09, Revision D.01,
 Gaussian 09:  AS64L-G09RevD.01 24-Apr-2013

 --------------------------------------------------------------------
 #p hf 3-21g scf=tight NoSymmetry guess=read opt=(tight,modredundant)
 --------------------------------------------------------------------

 -----------------------------------
 Geometry optimization at the 2D-PES
 -----------------------------------
 Symbolic Z-matrix:
 Charge =  0 Multiplicity = 1

 SCF Done:  E(RHF) =  -226.395731305     A.U. after   13 cycles
 SCF Done:  E(RHF) =  -226.395739121     A.U. after   12 cycles
 SCF Done:  E(RHF) =  -226.395749457     A.U. after   11 cycles
 SCF Done:  E(RHF) =  -226.395749516     A.U. after    8 cycles
 SCF Done:  E(RHF) =  -226.395749520     A.U. after    7 cycles
 Optimization completed.
    -- Stationary point found.

                          Input orientation:
 ---------------------------------------------------------------------
 Center     Atomic      Atomic             Coordinates (Angstroms)
 Number     Number       Type             X           Y           Z
 ---------------------------------------------------------------------
      1          6           0        0.736659    0.576857    0.063697
      2          6           0        1.418192   -0.535097   -0.040186
      3          1           0        1.176687    1.551950    0.092269
      4          1           0        2.487598   -0.505717   -0.066332
      5          1           0        0.940177   -1.490808   -0.048995
      6          8           0       -0.656436    0.707356    0.049926
      7          8           0       -1.270098   -0.498704    0.602455
      8          1           0       -1.801778   -0.790020   -0.158142
 ---------------------------------------------------------------------

 Alpha  occ. eigenvalues --  -20.53730 -20.52900 -11.24354 -11.16492  -1.47874
 Alpha  occ. eigenvalues --   -1.23957  -1.03255  -0.79343  -0.70292  -0.69187
 Alpha  occ. eigenvalues --   -0.64977  -0.57085  -0.53599  -0.52575  -0.48213
 Alpha  occ. eigenvalues --   -0.36300
 Alpha virt. eigenvalues --    0.18017   0.24045   0.29004   0.29857   0.33115
 Alpha virt. eigenvalues --    0.37241   0.49846   0.58145   0.88908   0.96883
 Alpha virt. eigenvalues --    1.00948   1.07058   1.10222   1.12652   1.22475

 Mulliken charges:
               1
     1  C    0.149772
     2  C   -0.497036
     3  H    0.257512
     4  H    0.223772
     5  H    0.237523
     6  O   -0.412337
     7  O   -0.375584
     8  H    0.416376
 Sum of Mulliken charges =   0.00000

 Dipole moment (field-independent basis, Debye):
    X=              0.5311    Y=             -0.8199    Z=             -1.4403  Tot=              1.7403
 Quadrupole moment (field-independent basis, Debye-Ang):
   XX=            -19.5354   YY=            -21.5441   ZZ=            -26.3891
   XY=              3.4794   XZ=              2.4180   YZ=              1.1990

 Normal termination of Gaussian 09 at Fri Apr 12 17:29:23 2019.
