 Gaussian 09, Revision D.01,
 Gaussian 09:  AS64L-G09RevD.01 24-Apr-2013

 --------------------------------------------------------------------
 #p hf 3-21g scf=tight NoSymmetry guess=read opt=(tight,modredundant)
 --------------------------------------------------------------------

 -----------------------------------
 Geometry optimization at the 2D-PES
 -----------------------------------
 Symbolic Z-matrix:
 Charge =  0 Multiplicity = 1

 SCF Done:  E(RHF) =  -226.395715899     A.U. after   13 cycles
 SCF Done:  E(RHF) =  -226.395720714     A.U. after   11 cycles
 SCF Done:  E(RHF) =  -226.395723879     A.U. after   10 cycles
 SCF Done:  E(RHF) =  -226.395723929     A.U. after    8 cycles
 SCF Done:  E(RHF) =  -226.395723932     A.U. after    7 cycles
 Optimization completed.
    -- Stationary point found.

                          Input orientation:
 ---------------------------------------------------------------------
 Center     Atomic      Atomic             Coordinates (Angstroms)
 Number     Number       Type             X           Y           Z
 ---------------------------------------------------------------------
      1          6           0        0.722927    0.638215    0.022484
      2          6           0        1.367070   -0.500666   -0.020795
      3          1           0        1.179728    1.602198    0.076112
      4          1           0        2.436178   -0.520107    0.025489
      5          1           0        0.846287   -1.434170   -0.085454
      6          8           0       -0.677195    0.668719    0.055078
      7          8           0       -1.073307    1.916746   -0.610519
      8          1           0       -1.842764    1.598197   -1.111478
 ---------------------------------------------------------------------

 Alpha  occ. eigenvalues --  -20.53430 -20.52472 -11.24228 -11.16705  -1.47479
 Alpha  occ. eigenvalues --   -1.23891  -1.02814  -0.79732  -0.71027  -0.66793
 Alpha  occ. eigenvalues --   -0.62736  -0.61076  -0.55461  -0.49778  -0.47784
 Alpha  occ. eigenvalues --   -0.36460
 Alpha virt. eigenvalues --    0.18221   0.24102   0.27822   0.31835   0.33592
 Alpha virt. eigenvalues --    0.35976   0.49794   0.57467   0.90138   0.97181
 Alpha virt. eigenvalues --    0.99990   1.06980   1.10788   1.12781   1.22173

 Mulliken charges:
               1
     1  C    0.164561
     2  C   -0.501596
     3  H    0.259045
     4  H    0.226828
     5  H    0.237229
     6  O   -0.416058
     7  O   -0.390270
     8  H    0.420262
 Sum of Mulliken charges =   0.00000

 Dipole moment (field-independent basis, Debye):
    X=              0.1467    Y=             -0.3464    Z=             -1.2191  Tot=              1.2758
 Quadrupole moment (field-independent basis, Debye-Ang):
   XX=            -18.1521   YY=            -24.1592   ZZ=            -23.7713
   XY=             -0.6104   XZ=              3.5651   YZ=             -1.2771

 Normal termination of Gaussian 09 at Fri Apr 12 15:29:11 2019.
