 Gaussian 09, Revision D.01,
 Gaussian 09:  AS64L-G09RevD.01 24-Apr-2013

 --------------------------------------------------------------------
 #p hf 3-21g scf=tight NoSymmetry guess=read opt=(tight,modredundant)
 --------------------------------------------------------------------

 -----------------------------------
 Geometry optimization at the 2D-PES
 -----------------------------------
 Symbolic Z-matrix:
 Charge =  0 Multiplicity = 1

 SCF Done:  E(RHF) =  -226.391155881     A.U. after   13 cycles
 SCF Done:  E(RHF) =  -226.391163361     A.U. after   12 cycles
 SCF Done:  E(RHF) =  -226.391167267     A.U. after   10 cycles
 SCF Done:  E(RHF) =  -226.391167326     A.U. after    9 cycles
 SCF Done:  E(RHF) =  -226.391167329     A.U. after    6 cycles
 SCF Done:  E(RHF) =  -226.391167329     A.U. after    6 cycles
 Optimization completed.
    -- Stationary point found.

                          Input orientation:
 ---------------------------------------------------------------------
 Center     Atomic      Atomic             Coordinates (Angstroms)
 Number     Number       Type             X           Y           Z
 ---------------------------------------------------------------------
      1          6           0        0.732204    0.608918    0.050712
      2          6           0        1.387879   -0.520796   -0.015337
      3          1           0        1.200205    1.569151    0.105609
      4          1           0        2.458537   -0.530567   -0.010723
      5          1           0        0.880091   -1.462880   -0.059336
      6          8           0       -0.674380    0.687360    0.005200
      7          8           0       -1.204924    0.131553    1.262190
      8          1           0       -1.865122   -0.484500    0.901851
 ---------------------------------------------------------------------

 Alpha  occ. eigenvalues --  -20.52399 -20.51874 -11.23854 -11.17734  -1.46330
 Alpha  occ. eigenvalues --   -1.23051  -1.03424  -0.79161  -0.69639  -0.68441
 Alpha  occ. eigenvalues --   -0.64424  -0.57689  -0.55176  -0.50077  -0.45712
 Alpha  occ. eigenvalues --   -0.37876
 Alpha virt. eigenvalues --    0.15367   0.26322   0.29385   0.30316   0.31780
 Alpha virt. eigenvalues --    0.36891   0.49826   0.56721   0.88669   0.97214
 Alpha virt. eigenvalues --    0.98770   1.06620   1.09827   1.12705   1.23309

 Mulliken charges:
               1
     1  C    0.140792
     2  C   -0.457944
     3  H    0.244058
     4  H    0.229211
     5  H    0.232609
     6  O   -0.417664
     7  O   -0.382984
     8  H    0.411921
 Sum of Mulliken charges =   0.00000

 Dipole moment (field-independent basis, Debye):
    X=              0.6161    Y=             -1.5835    Z=             -0.4418  Tot=              1.7557
 Quadrupole moment (field-independent basis, Debye-Ang):
   XX=            -18.4185   YY=            -21.7573   ZZ=            -27.2806
   XY=              3.7770   XZ=             -0.3783   YZ=             -0.9265

 Normal termination of Gaussian 09 at Fri Apr 12 16:55:17 2019.
