 Gaussian 09, Revision D.01,
 Gaussian 09:  AS64L-G09RevD.01 24-Apr-2013

 --------------------------------------------------------------------
 #p hf 3-21g scf=tight NoSymmetry guess=read opt=(tight,modredundant)
 --------------------------------------------------------------------

 -----------------------------------
 Geometry optimization at the 2D-PES
 -----------------------------------
 Symbolic Z-matrix:
 Charge =  0 Multiplicity = 1

 SCF Done:  E(RHF) =  -226.394394998     A.U. after   13 cycles
 SCF Done:  E(RHF) =  -226.394403880     A.U. after   11 cycles
 SCF Done:  E(RHF) =  -226.394409558     A.U. after   10 cycles
 SCF Done:  E(RHF) =  -226.394409618     A.U. after    8 cycles
 SCF Done:  E(RHF) =  -226.394409621     A.U. after    7 cycles
 Optimization completed.
    -- Stationary point found.

                          Input orientation:
 ---------------------------------------------------------------------
 Center     Atomic      Atomic             Coordinates (Angstroms)
 Number     Number       Type             X           Y           Z
 ---------------------------------------------------------------------
      1          6           0        0.736181    0.636343    0.055139
      2          6           0        1.371656   -0.505883    0.001190
      3          1           0        1.205390    1.594954    0.117375
      4          1           0        2.441402   -0.533966   -0.023569
      5          1           0        0.837643   -1.433244   -0.032309
      6          8           0       -0.665548    0.677450   -0.014853
      7          8           0       -1.111853    1.692321    0.944601
      8          1           0       -1.427280    2.385992    0.339556
 ---------------------------------------------------------------------

 Alpha  occ. eigenvalues --  -20.53472 -20.52581 -11.24288 -11.17086  -1.47599
 Alpha  occ. eigenvalues --   -1.23794  -1.03069  -0.79905  -0.70034  -0.68649
 Alpha  occ. eigenvalues --   -0.65170  -0.56392  -0.54813  -0.51769  -0.47837
 Alpha  occ. eigenvalues --   -0.36885
 Alpha virt. eigenvalues --    0.17465   0.24627   0.27515   0.31714   0.33064
 Alpha virt. eigenvalues --    0.35713   0.49307   0.57164   0.89718   0.97012
 Alpha virt. eigenvalues --    0.99623   1.06732   1.10611   1.12195   1.23099

 Mulliken charges:
               1
     1  C    0.153638
     2  C   -0.487300
     3  H    0.238439
     4  H    0.226691
     5  H    0.245947
     6  O   -0.406096
     7  O   -0.381700
     8  H    0.410382
 Sum of Mulliken charges =   0.00000

 Dipole moment (field-independent basis, Debye):
    X=              1.1799    Y=              1.5635    Z=             -1.0531  Tot=              2.2238
 Quadrupole moment (field-independent basis, Debye-Ang):
   XX=            -21.3816   YY=            -15.6810   ZZ=            -27.3695
   XY=             -2.2390   XZ=              1.1423   YZ=             -1.4260

 Normal termination of Gaussian 09 at Fri Apr 12 16:02:54 2019.
