 Gaussian 09, Revision D.01,
 Gaussian 09:  AS64L-G09RevD.01 24-Apr-2013

 --------------------------------------------------------------------
 #p hf 3-21g scf=tight NoSymmetry guess=read opt=(tight,modredundant)
 --------------------------------------------------------------------

 -----------------------------------
 Geometry optimization at the 2D-PES
 -----------------------------------
 Symbolic Z-matrix:
 Charge =  0 Multiplicity = 1

 SCF Done:  E(RHF) =  -226.395836363     A.U. after   13 cycles
 SCF Done:  E(RHF) =  -226.395840077     A.U. after   11 cycles
 SCF Done:  E(RHF) =  -226.395842198     A.U. after   10 cycles
 SCF Done:  E(RHF) =  -226.395842248     A.U. after    8 cycles
 SCF Done:  E(RHF) =  -226.395842249     A.U. after    6 cycles
 Optimization completed.
    -- Stationary point found.

                          Input orientation:
 ---------------------------------------------------------------------
 Center     Atomic      Atomic             Coordinates (Angstroms)
 Number     Number       Type             X           Y           Z
 ---------------------------------------------------------------------
      1          6           0        0.727351    0.633843    0.052153
      2          6           0        1.367641   -0.506143    0.004457
      3          1           0        1.188002    1.595176    0.128445
      4          1           0        2.437774   -0.530850   -0.009299
      5          1           0        0.837250   -1.435177   -0.039056
      6          8           0       -0.672170    0.669965   -0.025886
      7          8           0       -1.109821    1.508811    1.102528
      8          1           0       -1.923061    1.878531    0.719701
 ---------------------------------------------------------------------

 Alpha  occ. eigenvalues --  -20.52983 -20.52035 -11.23901 -11.17072  -1.46897
 Alpha  occ. eigenvalues --   -1.23531  -1.02827  -0.79449  -0.69207  -0.68636
 Alpha  occ. eigenvalues --   -0.64779  -0.56660  -0.55268  -0.51775  -0.46159
 Alpha  occ. eigenvalues --   -0.36950
 Alpha virt. eigenvalues --    0.16922   0.26075   0.28521   0.31734   0.32597
 Alpha virt. eigenvalues --    0.36100   0.49512   0.57275   0.89878   0.97335
 Alpha virt. eigenvalues --    1.00028   1.07013   1.10810   1.12620   1.22920

 Mulliken charges:
               1
     1  C    0.158895
     2  C   -0.480341
     3  H    0.243836
     4  H    0.226193
     5  H    0.243985
     6  O   -0.417241
     7  O   -0.391938
     8  H    0.416611
 Sum of Mulliken charges =   0.00000

 Dipole moment (field-independent basis, Debye):
    X=              0.1740    Y=              0.8472    Z=             -0.5619  Tot=              1.0314
 Quadrupole moment (field-independent basis, Debye-Ang):
   XX=            -17.5576   YY=            -19.1610   ZZ=            -27.2275
   XY=             -3.1721   XZ=             -0.4263   YZ=             -0.2932

 Normal termination of Gaussian 09 at Fri Apr 12 16:11:08 2019.
