 Gaussian 09, Revision D.01,
 Gaussian 09:  AS64L-G09RevD.01 24-Apr-2013

 --------------------------------------------------------------------
 #p hf 3-21g scf=tight NoSymmetry guess=read opt=(tight,modredundant)
 --------------------------------------------------------------------

 -----------------------------------
 Geometry optimization at the 2D-PES
 -----------------------------------
 Symbolic Z-matrix:
 Charge =  0 Multiplicity = 1

 SCF Done:  E(RHF) =  -226.394238442     A.U. after   13 cycles
 SCF Done:  E(RHF) =  -226.394253461     A.U. after   12 cycles
 SCF Done:  E(RHF) =  -226.394269712     A.U. after   11 cycles
 SCF Done:  E(RHF) =  -226.394269894     A.U. after    9 cycles
 SCF Done:  E(RHF) =  -226.394269906     A.U. after    8 cycles
 SCF Done:  E(RHF) =  -226.394269906     A.U. after    6 cycles
 Optimization completed.
    -- Stationary point found.

                          Input orientation:
 ---------------------------------------------------------------------
 Center     Atomic      Atomic             Coordinates (Angstroms)
 Number     Number       Type             X           Y           Z
 ---------------------------------------------------------------------
      1          6           0        0.721460    0.636121    0.023786
      2          6           0        1.367518   -0.500856   -0.025904
      3          1           0        1.181326    1.600002    0.055956
      4          1           0        2.437400   -0.523632    0.009059
      5          1           0        0.843809   -1.433963   -0.075099
      6          8           0       -0.685025    0.662986    0.054641
      7          8           0       -1.098459    1.417401   -1.140769
      8          1           0       -1.628407    0.739286   -1.593785
 ---------------------------------------------------------------------

 Alpha  occ. eigenvalues --  -20.52936 -20.52006 -11.24126 -11.17706  -1.46878
 Alpha  occ. eigenvalues --   -1.23368  -1.03345  -0.79625  -0.71208  -0.66472
 Alpha  occ. eigenvalues --   -0.62829  -0.60862  -0.55813  -0.48694  -0.46362
 Alpha  occ. eigenvalues --   -0.38244
 Alpha virt. eigenvalues --    0.16367   0.25991   0.28262   0.31137   0.32377
 Alpha virt. eigenvalues --    0.35917   0.49216   0.56733   0.89219   0.96892
 Alpha virt. eigenvalues --    0.98860   1.06955   1.10153   1.12675   1.22504

 Mulliken charges:
               1
     1  C    0.147063
     2  C   -0.477043
     3  H    0.248212
     4  H    0.229100
     5  H    0.238355
     6  O   -0.409003
     7  O   -0.389971
     8  H    0.413286
 Sum of Mulliken charges =   0.00000

 Dipole moment (field-independent basis, Debye):
    X=              0.8452    Y=             -1.3987    Z=             -1.1641  Tot=              2.0065
 Quadrupole moment (field-independent basis, Debye-Ang):
   XX=            -19.9067   YY=            -25.0654   ZZ=            -22.9200
   XY=              2.1040   XZ=              3.3447   YZ=              1.0345

 Normal termination of Gaussian 09 at Fri Apr 12 15:13:56 2019.
