 Gaussian 09, Revision D.01,
 Gaussian 09:  AS64L-G09RevD.01 24-Apr-2013

 --------------------------------------------------------------------
 #p hf 3-21g scf=tight NoSymmetry guess=read opt=(tight,modredundant)
 --------------------------------------------------------------------

 -----------------------------------
 Geometry optimization at the 2D-PES
 -----------------------------------
 Symbolic Z-matrix:
 Charge =  0 Multiplicity = 1

 SCF Done:  E(RHF) =  -226.396418994     A.U. after   12 cycles
 SCF Done:  E(RHF) =  -226.396427920     A.U. after   12 cycles
 SCF Done:  E(RHF) =  -226.396439859     A.U. after   10 cycles
 SCF Done:  E(RHF) =  -226.396439976     A.U. after    9 cycles
 SCF Done:  E(RHF) =  -226.396439984     A.U. after    8 cycles
 SCF Done:  E(RHF) =  -226.396439985     A.U. after    6 cycles
 Optimization completed.
    -- Stationary point found.

                          Input orientation:
 ---------------------------------------------------------------------
 Center     Atomic      Atomic             Coordinates (Angstroms)
 Number     Number       Type             X           Y           Z
 ---------------------------------------------------------------------
      1          6           0        0.740956    0.572667    0.023289
      2          6           0        1.433350   -0.535296   -0.051216
      3          1           0        1.169060    1.551105    0.092961
      4          1           0        2.502513   -0.494960   -0.044358
      5          1           0        0.963297   -1.489312   -0.147985
      6          8           0       -0.650053    0.705040    0.044377
      7          8           0       -1.290639   -0.600450   -0.029856
      8          1           0       -1.367473   -0.833677    0.913318
 ---------------------------------------------------------------------

 Alpha  occ. eigenvalues --  -20.54440 -20.53355 -11.24875 -11.16562  -1.48683
 Alpha  occ. eigenvalues --   -1.24296  -1.03675  -0.80093  -0.70115  -0.69956
 Alpha  occ. eigenvalues --   -0.64940  -0.57206  -0.54835  -0.52156  -0.48913
 Alpha  occ. eigenvalues --   -0.36597
 Alpha virt. eigenvalues --    0.19439   0.22267   0.28552   0.29449   0.33247
 Alpha virt. eigenvalues --    0.37055   0.49485   0.58494   0.88562   0.96445
 Alpha virt. eigenvalues --    1.00709   1.06738   1.09895   1.11600   1.23967

 Mulliken charges:
               1
     1  C    0.141748
     2  C   -0.516196
     3  H    0.262572
     4  H    0.224372
     5  H    0.243892
     6  O   -0.399842
     7  O   -0.369283
     8  H    0.412736
 Sum of Mulliken charges =   0.00000

 Dipole moment (field-independent basis, Debye):
    X=              1.3961    Y=             -0.6042    Z=              1.9341  Tot=              2.4606
 Quadrupole moment (field-independent basis, Debye-Ang):
   XX=            -22.8326   YY=            -21.6294   ZZ=            -23.8186
   XY=              2.5304   XZ=             -2.8055   YZ=             -1.5014

 Normal termination of Gaussian 09 at Fri Apr 12 18:01:45 2019.
