 Gaussian 09, Revision D.01,
 Gaussian 09:  AS64L-G09RevD.01 24-Apr-2013

 --------------------------------------------------------------------
 #p hf 3-21g scf=tight NoSymmetry guess=read opt=(tight,modredundant)
 --------------------------------------------------------------------

 -----------------------------------
 Geometry optimization at the 2D-PES
 -----------------------------------
 Symbolic Z-matrix:
 Charge =  0 Multiplicity = 1

 SCF Done:  E(RHF) =  -226.384374254     A.U. after   13 cycles
 SCF Done:  E(RHF) =  -226.384399538     A.U. after   12 cycles
 SCF Done:  E(RHF) =  -226.384427763     A.U. after   12 cycles
 SCF Done:  E(RHF) =  -226.384427975     A.U. after    9 cycles
 SCF Done:  E(RHF) =  -226.384428021     A.U. after    9 cycles
 SCF Done:  E(RHF) =  -226.384428023     A.U. after    7 cycles
 Optimization completed.
    -- Stationary point found.

                          Input orientation:
 ---------------------------------------------------------------------
 Center     Atomic      Atomic             Coordinates (Angstroms)
 Number     Number       Type             X           Y           Z
 ---------------------------------------------------------------------
      1          6           0        0.756271    0.632550    0.055342
      2          6           0        1.379731   -0.516181   -0.001593
      3          1           0        1.257701    1.578595    0.099441
      4          1           0        2.448989   -0.553493   -0.025444
      5          1           0        0.837608   -1.438878   -0.031806
      6          8           0       -0.644211    0.694881   -0.003018
      7          8           0       -1.127306    1.965581    0.539457
      8          1           0       -0.588882    2.634027    0.076439
 ---------------------------------------------------------------------

 Alpha  occ. eigenvalues --  -20.54123 -20.53262 -11.25497 -11.17545  -1.48191
 Alpha  occ. eigenvalues --   -1.24419  -1.03912  -0.81583  -0.71447  -0.67688
 Alpha  occ. eigenvalues --   -0.64727  -0.57470  -0.55628  -0.52438  -0.48923
 Alpha  occ. eigenvalues --   -0.36825
 Alpha virt. eigenvalues --    0.17854   0.22393   0.24350   0.31195   0.34100
 Alpha virt. eigenvalues --    0.35536   0.50687   0.56560   0.89036   0.96145
 Alpha virt. eigenvalues --    0.99080   1.05839   1.10019   1.11053   1.24023

 Mulliken charges:
               1
     1  C    0.135867
     2  C   -0.491341
     3  H    0.226900
     4  H    0.229753
     5  H    0.249722
     6  O   -0.386737
     7  O   -0.363173
     8  H    0.399009
 Sum of Mulliken charges =   0.00000

 Dipole moment (field-independent basis, Debye):
    X=              2.8705    Y=              1.4510    Z=             -0.8038  Tot=              3.3153
 Quadrupole moment (field-independent basis, Debye-Ang):
   XX=            -24.9101   YY=            -15.3815   ZZ=            -26.3704
   XY=              2.4809   XZ=              1.0554   YZ=             -1.5777

 Normal termination of Gaussian 09 at Fri Apr 12 15:52:55 2019.
