 Gaussian 09, Revision D.01,
 Gaussian 09:  AS64L-G09RevD.01 24-Apr-2013

 --------------------------------------------------------------------
 #p hf 3-21g scf=tight NoSymmetry guess=read opt=(tight,modredundant)
 --------------------------------------------------------------------

 -----------------------------------
 Geometry optimization at the 2D-PES
 -----------------------------------
 Symbolic Z-matrix:
 Charge =  0 Multiplicity = 1

 SCF Done:  E(RHF) =  -226.380269072     A.U. after   13 cycles
 SCF Done:  E(RHF) =  -226.380271979     A.U. after   11 cycles
 SCF Done:  E(RHF) =  -226.380275689     A.U. after   11 cycles
 SCF Done:  E(RHF) =  -226.380275702     A.U. after    7 cycles
 Optimization completed.
    -- Stationary point found.

                          Input orientation:
 ---------------------------------------------------------------------
 Center     Atomic      Atomic             Coordinates (Angstroms)
 Number     Number       Type             X           Y           Z
 ---------------------------------------------------------------------
      1          6           0        0.767568    0.628916    0.064665
      2          6           0        1.384167   -0.523333    0.003835
      3          1           0        1.279653    1.572296    0.079632
      4          1           0        2.452911   -0.568570   -0.031417
      5          1           0        0.833872   -1.441194   -0.024308
      6          8           0       -0.629125    0.703485   -0.015112
      7          8           0       -1.159949    1.849808    0.736372
      8          1           0       -0.405340    2.458180    0.839209
 ---------------------------------------------------------------------

 Alpha  occ. eigenvalues --  -20.53993 -20.52925 -11.25738 -11.18122  -1.47698
 Alpha  occ. eigenvalues --   -1.24476  -1.04275  -0.82077  -0.71587  -0.67649
 Alpha  occ. eigenvalues --   -0.63184  -0.58718  -0.55957  -0.52434  -0.48191
 Alpha  occ. eigenvalues --   -0.37184
 Alpha virt. eigenvalues --    0.16447   0.23610   0.23880   0.30770   0.34113
 Alpha virt. eigenvalues --    0.35395   0.50967   0.56145   0.88693   0.95795
 Alpha virt. eigenvalues --    0.99280   1.05500   1.09751   1.11151   1.23335

 Mulliken charges:
               1
     1  C    0.117813
     2  C   -0.479747
     3  H    0.223527
     4  H    0.231448
     5  H    0.253615
     6  O   -0.379869
     7  O   -0.364706
     8  H    0.397919
 Sum of Mulliken charges =   0.00000

 Dipole moment (field-independent basis, Debye):
    X=              3.3626    Y=              1.1445    Z=              0.3517  Tot=              3.5694
 Quadrupole moment (field-independent basis, Debye-Ang):
   XX=            -25.2671   YY=            -16.5206   ZZ=            -25.4459
   XY=              3.4377   XZ=              0.8789   YZ=              1.7796

 Normal termination of Gaussian 09 at Fri Apr 12 15:55:16 2019.
