 Gaussian 09, Revision D.01,
 Gaussian 09:  AS64L-G09RevD.01 24-Apr-2013

 --------------------------------------------------------------------
 #p hf 3-21g scf=tight NoSymmetry guess=read opt=(tight,modredundant)
 --------------------------------------------------------------------

 -----------------------------------
 Geometry optimization at the 2D-PES
 -----------------------------------
 Symbolic Z-matrix:
 Charge =  0 Multiplicity = 1

 SCF Done:  E(RHF) =  -226.382076645     A.U. after   13 cycles
 SCF Done:  E(RHF) =  -226.382081185     A.U. after   11 cycles
 SCF Done:  E(RHF) =  -226.382085463     A.U. after   11 cycles
 SCF Done:  E(RHF) =  -226.382085493     A.U. after    9 cycles
 SCF Done:  E(RHF) =  -226.382085497     A.U. after    7 cycles
 Optimization completed.
    -- Stationary point found.

                          Input orientation:
 ---------------------------------------------------------------------
 Center     Atomic      Atomic             Coordinates (Angstroms)
 Number     Number       Type             X           Y           Z
 ---------------------------------------------------------------------
      1          6           0        0.751302    0.618400    0.039178
      2          6           0        1.391394   -0.522128   -0.009124
      3          1           0        1.231293    1.575881    0.082361
      4          1           0        2.462157   -0.552117   -0.010331
      5          1           0        0.856504   -1.448820   -0.059548
      6          8           0       -0.659252    0.679053   -0.006366
      7          8           0       -1.209326    0.614677    1.364387
      8          1           0       -0.519636    1.025455    1.918453
 ---------------------------------------------------------------------

 Alpha  occ. eigenvalues --  -20.52684 -20.51837 -11.24713 -11.19346  -1.46251
 Alpha  occ. eigenvalues --   -1.23192  -1.04619  -0.81242  -0.70637  -0.68385
 Alpha  occ. eigenvalues --   -0.59567  -0.59075  -0.58093  -0.51288  -0.44219
 Alpha  occ. eigenvalues --   -0.39772
 Alpha virt. eigenvalues --    0.13594   0.27136   0.27415   0.29409   0.31224
 Alpha virt. eigenvalues --    0.35967   0.49367   0.55399   0.87259   0.96373
 Alpha virt. eigenvalues --    0.98039   1.05932   1.09060   1.10729   1.24745

 Mulliken charges:
               1
     1  C    0.063027
     2  C   -0.437474
     3  H    0.237143
     4  H    0.232861
     5  H    0.261032
     6  O   -0.378337
     7  O   -0.374374
     8  H    0.396123
 Sum of Mulliken charges =   0.00000

 Dipole moment (field-independent basis, Debye):
    X=              3.5229    Y=              0.3508    Z=              1.2672  Tot=              3.7603
 Quadrupole moment (field-independent basis, Debye-Ang):
   XX=            -25.1561   YY=            -20.7960   ZZ=            -21.7807
   XY=              1.3660   XZ=              1.2862   YZ=              2.7016

 Normal termination of Gaussian 09 at Fri Apr 12 16:35:44 2019.
