 Gaussian 09, Revision D.01,
 Gaussian 09:  AS64L-G09RevD.01 24-Apr-2013

 --------------------------------------------------------------------
 #p hf 3-21g scf=tight NoSymmetry guess=read opt=(tight,modredundant)
 --------------------------------------------------------------------

 -----------------------------------
 Geometry optimization at the 2D-PES
 -----------------------------------
 Symbolic Z-matrix:
 Charge =  0 Multiplicity = 1

 SCF Done:  E(RHF) =  -226.398406054     A.U. after   13 cycles
 SCF Done:  E(RHF) =  -226.398407409     A.U. after   11 cycles
 SCF Done:  E(RHF) =  -226.398410365     A.U. after   10 cycles
 SCF Done:  E(RHF) =  -226.398410386     A.U. after    7 cycles
 SCF Done:  E(RHF) =  -226.398410389     A.U. after    7 cycles
 Optimization completed.
    -- Stationary point found.

                          Input orientation:
 ---------------------------------------------------------------------
 Center     Atomic      Atomic             Coordinates (Angstroms)
 Number     Number       Type             X           Y           Z
 ---------------------------------------------------------------------
      1          6           0        0.732594    0.572668    0.027750
      2          6           0        1.421476   -0.536373   -0.056209
      3          1           0        1.164884    1.549278    0.102187
      4          1           0        2.490972   -0.495601   -0.056917
      5          1           0        0.947796   -1.490610   -0.123565
      6          8           0       -0.652316    0.712005    0.047130
      7          8           0       -1.270277   -0.610714   -0.043226
      8          1           0       -2.153719   -0.344554   -0.347238
 ---------------------------------------------------------------------

 Alpha  occ. eigenvalues --  -20.53902 -20.52719 -11.24182 -11.15588  -1.47909
 Alpha  occ. eigenvalues --   -1.24119  -1.02666  -0.79092  -0.71873  -0.65427
 Alpha  occ. eigenvalues --   -0.64212  -0.61129  -0.53602  -0.50736  -0.48438
 Alpha  occ. eigenvalues --   -0.35409
 Alpha virt. eigenvalues --    0.20444   0.22773   0.28592   0.30545   0.34353
 Alpha virt. eigenvalues --    0.37451   0.50194   0.59305   0.89423   0.97476
 Alpha virt. eigenvalues --    1.01107   1.07692   1.10765   1.12893   1.23685

 Mulliken charges:
               1
     1  C    0.158436
     2  C   -0.508703
     3  H    0.257646
     4  H    0.217846
     5  H    0.255270
     6  O   -0.421842
     7  O   -0.383340
     8  H    0.424687
 Sum of Mulliken charges =   0.00000

 Dipole moment (field-independent basis, Debye):
    X=             -0.3482    Y=              0.3538    Z=             -0.6905  Tot=              0.8504
 Quadrupole moment (field-independent basis, Debye-Ang):
   XX=            -16.4175   YY=            -22.9148   ZZ=            -25.5413
   XY=              1.6357   XZ=              1.7538   YZ=              0.4636

 Normal termination of Gaussian 09 at Fri Apr 12 17:58:53 2019.
