 Gaussian 09, Revision D.01,
 Gaussian 09:  AS64L-G09RevD.01 24-Apr-2013

 --------------------------------------------------------------------
 #p hf 3-21g scf=tight NoSymmetry guess=read opt=(tight,modredundant)
 --------------------------------------------------------------------

 -----------------------------------
 Geometry optimization at the 2D-PES
 -----------------------------------
 Symbolic Z-matrix:
 Charge =  0 Multiplicity = 1

 SCF Done:  E(RHF) =  -226.380465994     A.U. after   13 cycles
 SCF Done:  E(RHF) =  -226.380473401     A.U. after   12 cycles
 SCF Done:  E(RHF) =  -226.380478053     A.U. after   11 cycles
 SCF Done:  E(RHF) =  -226.380478155     A.U. after    8 cycles
 SCF Done:  E(RHF) =  -226.380478170     A.U. after    7 cycles
 Optimization completed.
    -- Stationary point found.

                          Input orientation:
 ---------------------------------------------------------------------
 Center     Atomic      Atomic             Coordinates (Angstroms)
 Number     Number       Type             X           Y           Z
 ---------------------------------------------------------------------
      1          6           0        0.761543    0.633387    0.015204
      2          6           0        1.387804   -0.515252   -0.009495
      3          1           0        1.254543    1.581477    0.114909
      4          1           0        2.454679   -0.557946    0.067462
      5          1           0        0.845191   -1.434846   -0.088781
      6          8           0       -0.639692    0.686315    0.040014
      7          8           0       -1.147312    1.769406   -0.821996
      8          1           0       -0.353781    2.187787   -1.203101
 ---------------------------------------------------------------------

 Alpha  occ. eigenvalues --  -20.53716 -20.52562 -11.25517 -11.18607  -1.47266
 Alpha  occ. eigenvalues --   -1.24235  -1.04431  -0.81914  -0.71768  -0.67447
 Alpha  occ. eigenvalues --   -0.62198  -0.59285  -0.55793  -0.52947  -0.46963
 Alpha  occ. eigenvalues --   -0.37770
 Alpha virt. eigenvalues --    0.15123   0.24340   0.25828   0.30468   0.33104
 Alpha virt. eigenvalues --    0.35195   0.49801   0.55948   0.88200   0.95944
 Alpha virt. eigenvalues --    0.99053   1.06000   1.09519   1.11042   1.23629

 Mulliken charges:
               1
     1  C    0.095251
     2  C   -0.470121
     3  H    0.233501
     4  H    0.232641
     5  H    0.255586
     6  O   -0.375773
     7  O   -0.370029
     8  H    0.398944
 Sum of Mulliken charges =   0.00000

 Dipole moment (field-independent basis, Debye):
    X=              3.5335    Y=              0.6778    Z=             -0.8367  Tot=              3.6939
 Quadrupole moment (field-independent basis, Debye-Ang):
   XX=            -25.2664   YY=            -18.5827   ZZ=            -24.0761
   XY=              3.6036   XZ=             -0.7045   YZ=             -2.3946

 Normal termination of Gaussian 09 at Fri Apr 12 15:25:21 2019.
