 Gaussian 09, Revision D.01,
 Gaussian 09:  AS64L-G09RevD.01 24-Apr-2013

 --------------------------------------------------------------------
 #p hf 3-21g scf=tight NoSymmetry guess=read opt=(tight,modredundant)
 --------------------------------------------------------------------

 -----------------------------------
 Geometry optimization at the 2D-PES
 -----------------------------------
 Symbolic Z-matrix:
 Charge =  0 Multiplicity = 1

 SCF Done:  E(RHF) =  -226.389852056     A.U. after   13 cycles
 SCF Done:  E(RHF) =  -226.389863790     A.U. after   13 cycles
 SCF Done:  E(RHF) =  -226.389874141     A.U. after   11 cycles
 SCF Done:  E(RHF) =  -226.389874215     A.U. after    9 cycles
 SCF Done:  E(RHF) =  -226.389874226     A.U. after    8 cycles
 SCF Done:  E(RHF) =  -226.389874227     A.U. after    7 cycles
 Optimization completed.
    -- Stationary point found.

                          Input orientation:
 ---------------------------------------------------------------------
 Center     Atomic      Atomic             Coordinates (Angstroms)
 Number     Number       Type             X           Y           Z
 ---------------------------------------------------------------------
      1          6           0        0.738995    0.638562    0.019248
      2          6           0        1.375541   -0.504630   -0.019148
      3          1           0        1.203061    1.600144    0.083773
      4          1           0        2.444539   -0.534935    0.029933
      5          1           0        0.843849   -1.432604   -0.077166
      6          8           0       -0.666753    0.670703    0.049123
      7          8           0       -1.107924    1.770413   -0.815942
      8          1           0       -0.745441    1.520924   -1.686658
 ---------------------------------------------------------------------

 Alpha  occ. eigenvalues --  -20.53735 -20.52725 -11.24855 -11.18229  -1.47785
 Alpha  occ. eigenvalues --   -1.23877  -1.04026  -0.80744  -0.72546  -0.65876
 Alpha  occ. eigenvalues --   -0.64063  -0.59550  -0.55490  -0.51365  -0.47278
 Alpha  occ. eigenvalues --   -0.38055
 Alpha virt. eigenvalues --    0.15894   0.24787   0.27307   0.30842   0.32257
 Alpha virt. eigenvalues --    0.35519   0.48866   0.56444   0.88773   0.96501
 Alpha virt. eigenvalues --    0.98599   1.06173   1.09567   1.10365   1.24875

 Mulliken charges:
               1
     1  C    0.105051
     2  C   -0.481201
     3  H    0.253346
     4  H    0.232013
     5  H    0.248102
     6  O   -0.383574
     7  O   -0.375622
     8  H    0.401886
 Sum of Mulliken charges =   0.00000

 Dipole moment (field-independent basis, Debye):
    X=              2.6376    Y=             -0.4833    Z=             -1.8708  Tot=              3.2696
 Quadrupole moment (field-independent basis, Debye-Ang):
   XX=            -24.4339   YY=            -23.6561   ZZ=            -20.9375
   XY=              2.8435   XZ=              1.0894   YZ=             -2.2297

 Normal termination of Gaussian 09 at Fri Apr 12 15:23:26 2019.
