 Gaussian 09, Revision D.01,
 Gaussian 09:  AS64L-G09RevD.01 24-Apr-2013

 --------------------------------------------------------------------
 #p hf 3-21g scf=tight NoSymmetry guess=read opt=(tight,modredundant)
 --------------------------------------------------------------------

 -----------------------------------
 Geometry optimization at the 2D-PES
 -----------------------------------
 Symbolic Z-matrix:
 Charge =  0 Multiplicity = 1

 SCF Done:  E(RHF) =  -226.380986230     A.U. after   14 cycles
 SCF Done:  E(RHF) =  -226.381060731     A.U. after   12 cycles
 SCF Done:  E(RHF) =  -226.381067305     A.U. after   11 cycles
 SCF Done:  E(RHF) =  -226.381068032     A.U. after    9 cycles
 SCF Done:  E(RHF) =  -226.381068106     A.U. after    8 cycles
 SCF Done:  E(RHF) =  -226.381068113     A.U. after    7 cycles
 SCF Done:  E(RHF) =  -226.381068113     A.U. after    6 cycles
 Optimization completed.
    -- Stationary point found.

                          Input orientation:
 ---------------------------------------------------------------------
 Center     Atomic      Atomic             Coordinates (Angstroms)
 Number     Number       Type             X           Y           Z
 ---------------------------------------------------------------------
      1          6           0        0.740907    0.619671    0.028211
      2          6           0        1.403375   -0.511611    0.000155
      3          1           0        1.202533    1.583592    0.084225
      4          1           0        2.473913   -0.518311    0.021995
      5          1           0        0.893492   -1.454319   -0.029315
      6          8           0       -0.667472    0.673290    0.018251
      7          8           0       -1.203617    0.259823   -1.297366
      8          1           0       -0.407267    0.054007   -1.822348
 ---------------------------------------------------------------------

 Alpha  occ. eigenvalues --  -20.52817 -20.52024 -11.25437 -11.19626  -1.46457
 Alpha  occ. eigenvalues --   -1.23451  -1.05254  -0.81208  -0.71965  -0.67793
 Alpha  occ. eigenvalues --   -0.60113  -0.59942  -0.56588  -0.52935  -0.44764
 Alpha  occ. eigenvalues --   -0.39459
 Alpha virt. eigenvalues --    0.13706   0.25819   0.27579   0.29039   0.30370
 Alpha virt. eigenvalues --    0.36530   0.49728   0.54888   0.87285   0.96401
 Alpha virt. eigenvalues --    0.98288   1.04334   1.08106   1.10993   1.23185

 Mulliken charges:
               1
     1  C    0.077555
     2  C   -0.467108
     3  H    0.251367
     4  H    0.237647
     5  H    0.255132
     6  O   -0.381948
     7  O   -0.371126
     8  H    0.398481
 Sum of Mulliken charges =   0.00000

 Dipole moment (field-independent basis, Debye):
    X=              3.6916    Y=             -0.6972    Z=             -1.1503  Tot=              3.9290
 Quadrupole moment (field-independent basis, Debye-Ang):
   XX=            -25.3849   YY=            -22.2580   ZZ=            -22.1192
   XY=              1.7152   XZ=             -1.4512   YZ=              0.5741

 Normal termination of Gaussian 09 at Fri Apr 12 14:59:38 2019.
