 Gaussian 09, Revision D.01,
 Gaussian 09:  AS64L-G09RevD.01 24-Apr-2013

 --------------------------------------------------------------------
 #p hf 3-21g scf=tight NoSymmetry guess=read opt=(tight,modredundant)
 --------------------------------------------------------------------

 -----------------------------------
 Geometry optimization at the 2D-PES
 -----------------------------------
 Symbolic Z-matrix:
 Charge =  0 Multiplicity = 1

 SCF Done:  E(RHF) =  -226.395325022     A.U. after   12 cycles
 SCF Done:  E(RHF) =  -226.395337949     A.U. after   12 cycles
 SCF Done:  E(RHF) =  -226.395357517     A.U. after   12 cycles
 SCF Done:  E(RHF) =  -226.395357765     A.U. after    9 cycles
 SCF Done:  E(RHF) =  -226.395357795     A.U. after    8 cycles
 SCF Done:  E(RHF) =  -226.395357797     A.U. after    7 cycles
 Optimization completed.
    -- Stationary point found.

                          Input orientation:
 ---------------------------------------------------------------------
 Center     Atomic      Atomic             Coordinates (Angstroms)
 Number     Number       Type             X           Y           Z
 ---------------------------------------------------------------------
      1          6           0        0.741478    0.571194    0.041232
      2          6           0        1.434750   -0.534622   -0.060042
      3          1           0        1.169691    1.549774    0.106369
      4          1           0        2.503558   -0.491424   -0.079240
      5          1           0        0.969101   -1.495534   -0.089614
      6          8           0       -0.649055    0.702759    0.055768
      7          8           0       -1.295171   -0.596578   -0.060464
      8          1           0       -1.238190   -0.765659   -1.019518
 ---------------------------------------------------------------------

 Alpha  occ. eigenvalues --  -20.54567 -20.53451 -11.25114 -11.16828  -1.48817
 Alpha  occ. eigenvalues --   -1.24388  -1.03944  -0.80336  -0.70718  -0.69614
 Alpha  occ. eigenvalues --   -0.65099  -0.56949  -0.55109  -0.52511  -0.48955
 Alpha  occ. eigenvalues --   -0.36817
 Alpha virt. eigenvalues --    0.19199   0.22130   0.28399   0.29240   0.33067
 Alpha virt. eigenvalues --    0.36942   0.49424   0.58343   0.88390   0.96418
 Alpha virt. eigenvalues --    1.00234   1.06467   1.09609   1.11333   1.24497

 Mulliken charges:
               1
     1  C    0.141061
     2  C   -0.520030
     3  H    0.264394
     4  H    0.226501
     5  H    0.240430
     6  O   -0.396400
     7  O   -0.366641
     8  H    0.410685
 Sum of Mulliken charges =   0.00000

 Dipole moment (field-independent basis, Debye):
    X=              1.6772    Y=             -0.4336    Z=             -1.9759  Tot=              2.6278
 Quadrupole moment (field-independent basis, Debye-Ang):
   XX=            -23.5516   YY=            -21.8567   ZZ=            -23.4007
   XY=              2.1088   XZ=              2.7347   YZ=              1.8778

 Normal termination of Gaussian 09 at Fri Apr 12 17:56:55 2019.
