 Gaussian 09, Revision D.01,
 Gaussian 09:  AS64L-G09RevD.01 24-Apr-2013

 --------------------------------------------------------------------
 #p hf 3-21g scf=tight NoSymmetry guess=read opt=(tight,modredundant)
 --------------------------------------------------------------------

 -----------------------------------
 Geometry optimization at the 2D-PES
 -----------------------------------
 Symbolic Z-matrix:
 Charge =  0 Multiplicity = 1

 SCF Done:  E(RHF) =  -226.381912073     A.U. after   13 cycles
 SCF Done:  E(RHF) =  -226.381932810     A.U. after   13 cycles
 SCF Done:  E(RHF) =  -226.382018235     A.U. after   12 cycles
 SCF Done:  E(RHF) =  -226.382018663     A.U. after   10 cycles
 SCF Done:  E(RHF) =  -226.382018669     A.U. after    7 cycles
 SCF Done:  E(RHF) =  -226.382018672     A.U. after    6 cycles
 Optimization completed.
    -- Stationary point found.

                          Input orientation:
 ---------------------------------------------------------------------
 Center     Atomic      Atomic             Coordinates (Angstroms)
 Number     Number       Type             X           Y           Z
 ---------------------------------------------------------------------
      1          6           0        0.754178    0.554513    0.015882
      2          6           0        1.488307   -0.529770   -0.061782
      3          1           0        1.176206    1.535145    0.086123
      4          1           0        2.553739   -0.436173   -0.058055
      5          1           0        1.109957   -1.527338   -0.154763
      6          8           0       -0.625743    0.693887    0.053152
      7          8           0       -1.393894   -0.547563   -0.001632
      8          1           0       -0.744301   -1.261578    0.106455
 ---------------------------------------------------------------------

 Alpha  occ. eigenvalues --  -20.55002 -20.53437 -11.26720 -11.18317  -1.48796
 Alpha  occ. eigenvalues --   -1.25319  -1.05482  -0.81642  -0.73685  -0.68278
 Alpha  occ. eigenvalues --   -0.64642  -0.58652  -0.54797  -0.54078  -0.49444
 Alpha  occ. eigenvalues --   -0.37282
 Alpha virt. eigenvalues --    0.18221   0.20565   0.26542   0.27238   0.36122
 Alpha virt. eigenvalues --    0.37070   0.49275   0.61133   0.88003   0.95153
 Alpha virt. eigenvalues --    1.01534   1.05323   1.07631   1.10698   1.23879

 Mulliken charges:
               1
     1  C    0.151941
     2  C   -0.541995
     3  H    0.275817
     4  H    0.243293
     5  H    0.205640
     6  O   -0.389944
     7  O   -0.362846
     8  H    0.418095
 Sum of Mulliken charges =   0.00000

 Dipole moment (field-independent basis, Debye):
    X=              2.8842    Y=             -1.3311    Z=              0.1853  Tot=              3.1819
 Quadrupole moment (field-independent basis, Debye-Ang):
   XX=            -25.8162   YY=            -19.5027   ZZ=            -25.8506
   XY=              2.2093   XZ=             -0.0872   YZ=             -0.0572

 Normal termination of Gaussian 09 at Fri Apr 12 18:04:16 2019.
