 Gaussian 09, Revision D.01,
 Gaussian 09:  AS64L-G09RevD.01 24-Apr-2013

 --------------------------------------------------------------------
 #p hf 3-21g scf=tight NoSymmetry guess=read opt=(tight,modredundant)
 --------------------------------------------------------------------

 -----------------------------------
 Geometry optimization at the 2D-PES
 -----------------------------------
 Symbolic Z-matrix:
 Charge =  0 Multiplicity = 1

 SCF Done:  E(RHF) =  -226.394841665     A.U. after   13 cycles
 SCF Done:  E(RHF) =  -226.394850754     A.U. after   11 cycles
 SCF Done:  E(RHF) =  -226.394856246     A.U. after   10 cycles
 SCF Done:  E(RHF) =  -226.394856315     A.U. after    8 cycles
 SCF Done:  E(RHF) =  -226.394856322     A.U. after    7 cycles
 Optimization completed.
    -- Stationary point found.

                          Input orientation:
 ---------------------------------------------------------------------
 Center     Atomic      Atomic             Coordinates (Angstroms)
 Number     Number       Type             X           Y           Z
 ---------------------------------------------------------------------
      1          6           0        0.732879    0.634419    0.053328
      2          6           0        1.370069   -0.506859    0.003692
      3          1           0        1.200095    1.593459    0.124836
      4          1           0        2.440083   -0.535313   -0.013352
      5          1           0        0.835689   -1.433724   -0.036635
      6          8           0       -0.669073    0.673238   -0.022149
      7          8           0       -1.120569    1.507714    1.099653
      8          1           0       -1.584124    2.213260    0.616669
 ---------------------------------------------------------------------

 Alpha  occ. eigenvalues --  -20.53176 -20.52265 -11.24071 -11.17222  -1.47201
 Alpha  occ. eigenvalues --   -1.23579  -1.03025  -0.79687  -0.69544  -0.68733
 Alpha  occ. eigenvalues --   -0.65086  -0.56547  -0.54883  -0.51340  -0.47072
 Alpha  occ. eigenvalues --   -0.37175
 Alpha virt. eigenvalues --    0.16940   0.25608   0.27991   0.31627   0.32736
 Alpha virt. eigenvalues --    0.35832   0.49250   0.57093   0.89612   0.97162
 Alpha virt. eigenvalues --    0.99585   1.06955   1.10657   1.12613   1.22629

 Mulliken charges:
               1
     1  C    0.152321
     2  C   -0.478616
     3  H    0.236405
     4  H    0.226478
     5  H    0.246801
     6  O   -0.408962
     7  O   -0.385825
     8  H    0.411398
 Sum of Mulliken charges =   0.00000

 Dipole moment (field-independent basis, Debye):
    X=              0.9227    Y=              1.5013    Z=             -0.7726  Tot=              1.9241
 Quadrupole moment (field-independent basis, Debye-Ang):
   XX=            -20.3401   YY=            -16.1762   ZZ=            -27.4941
   XY=             -2.9316   XZ=              0.4753   YZ=             -0.3087

 Normal termination of Gaussian 09 at Fri Apr 12 16:10:24 2019.
