 Gaussian 09, Revision D.01,
 Gaussian 09:  AS64L-G09RevD.01 24-Apr-2013

 --------------------------------------------------------------------
 #p hf 3-21g scf=tight NoSymmetry guess=read opt=(tight,modredundant)
 --------------------------------------------------------------------

 -----------------------------------
 Geometry optimization at the 2D-PES
 -----------------------------------
 Symbolic Z-matrix:
 Charge =  0 Multiplicity = 1

 SCF Done:  E(RHF) =  -226.386079258     A.U. after   13 cycles
 SCF Done:  E(RHF) =  -226.386086096     A.U. after   12 cycles
 SCF Done:  E(RHF) =  -226.386093727     A.U. after   10 cycles
 SCF Done:  E(RHF) =  -226.386093754     A.U. after    9 cycles
 SCF Done:  E(RHF) =  -226.386093758     A.U. after    7 cycles
 Optimization completed.
    -- Stationary point found.

                          Input orientation:
 ---------------------------------------------------------------------
 Center     Atomic      Atomic             Coordinates (Angstroms)
 Number     Number       Type             X           Y           Z
 ---------------------------------------------------------------------
      1          6           0        0.746665    0.611163    0.045990
      2          6           0        1.395797   -0.522798   -0.016310
      3          1           0        1.216728    1.572971    0.083606
      4          1           0        2.466678   -0.541944   -0.013715
      5          1           0        0.871008   -1.455464   -0.059943
      6          8           0       -0.665492    0.687897    0.006696
      7          8           0       -1.221072    0.147084    1.256882
      8          1           0       -0.832091    0.727902    1.936682
 ---------------------------------------------------------------------

 Alpha  occ. eigenvalues --  -20.52698 -20.52040 -11.24289 -11.18561  -1.46588
 Alpha  occ. eigenvalues --   -1.23003  -1.04130  -0.80638  -0.69590  -0.68933
 Alpha  occ. eigenvalues --   -0.60775  -0.59635  -0.57157  -0.49486  -0.45607
 Alpha  occ. eigenvalues --   -0.38913
 Alpha virt. eigenvalues --    0.14391   0.26764   0.28221   0.29405   0.31550
 Alpha virt. eigenvalues --    0.36537   0.49605   0.55982   0.87638   0.96634
 Alpha virt. eigenvalues --    0.98437   1.06215   1.09385   1.10568   1.24841

 Mulliken charges:
               1
     1  C    0.079700
     2  C   -0.444784
     3  H    0.239723
     4  H    0.229695
     5  H    0.259314
     6  O   -0.387262
     7  O   -0.374600
     8  H    0.398215
 Sum of Mulliken charges =   0.00000

 Dipole moment (field-independent basis, Debye):
    X=              2.8568    Y=              0.7234    Z=              1.5843  Tot=              3.3458
 Quadrupole moment (field-independent basis, Debye-Ang):
   XX=            -24.5127   YY=            -21.1638   ZZ=            -20.9596
   XY=              0.1557   XZ=             -0.2370   YZ=              2.9624

 Normal termination of Gaussian 09 at Fri Apr 12 16:50:57 2019.
