 Gaussian 09, Revision D.01,
 Gaussian 09:  AS64L-G09RevD.01 24-Apr-2013

 --------------------------------------------------------------------
 #p hf 3-21g scf=tight NoSymmetry guess=read opt=(tight,modredundant)
 --------------------------------------------------------------------

 -----------------------------------
 Geometry optimization at the 2D-PES
 -----------------------------------
 Symbolic Z-matrix:
 Charge =  0 Multiplicity = 1

 SCF Done:  E(RHF) =  -226.391039899     A.U. after   13 cycles
 SCF Done:  E(RHF) =  -226.391048475     A.U. after   11 cycles
 SCF Done:  E(RHF) =  -226.391053187     A.U. after   10 cycles
 SCF Done:  E(RHF) =  -226.391053239     A.U. after    8 cycles
 SCF Done:  E(RHF) =  -226.391053245     A.U. after    7 cycles
 Optimization completed.
    -- Stationary point found.

                          Input orientation:
 ---------------------------------------------------------------------
 Center     Atomic      Atomic             Coordinates (Angstroms)
 Number     Number       Type             X           Y           Z
 ---------------------------------------------------------------------
      1          6           0        0.735395    0.612116    0.046923
      2          6           0        1.385593   -0.520364   -0.013929
      3          1           0        1.206142    1.572298    0.102426
      4          1           0        2.456385   -0.536420   -0.003899
      5          1           0        0.865241   -1.455078   -0.060369
      6          8           0       -0.673177    0.685708    0.000372
      7          8           0       -1.200802    0.134378    1.259743
      8          1           0       -1.681237    0.909172    1.599625
 ---------------------------------------------------------------------

 Alpha  occ. eigenvalues --  -20.52321 -20.51732 -11.23620 -11.17506  -1.46227
 Alpha  occ. eigenvalues --   -1.22866  -1.03169  -0.79337  -0.70274  -0.66329
 Alpha  occ. eigenvalues --   -0.63651  -0.59572  -0.55374  -0.48672  -0.45351
 Alpha  occ. eigenvalues --   -0.38104
 Alpha virt. eigenvalues --    0.15602   0.26391   0.29332   0.30674   0.32235
 Alpha virt. eigenvalues --    0.36807   0.49789   0.56835   0.88585   0.97387
 Alpha virt. eigenvalues --    0.98834   1.06733   1.10274   1.12780   1.23446

 Mulliken charges:
               1
     1  C    0.124149
     2  C   -0.449950
     3  H    0.234390
     4  H    0.225304
     5  H    0.253235
     6  O   -0.412095
     7  O   -0.385301
     8  H    0.410269
 Sum of Mulliken charges =   0.00000

 Dipole moment (field-independent basis, Debye):
    X=              1.0191    Y=              1.2336    Z=              1.0226  Tot=              1.8990
 Quadrupole moment (field-independent basis, Debye-Ang):
   XX=            -19.9339   YY=            -20.4665   ZZ=            -23.4546
   XY=             -1.9293   XZ=             -2.6917   YZ=              3.2133

 Normal termination of Gaussian 09 at Fri Apr 12 16:52:25 2019.
