 Gaussian 09, Revision D.01,
 Gaussian 09:  AS64L-G09RevD.01 24-Apr-2013

 --------------------------------------------------------------------
 #p hf 3-21g scf=tight NoSymmetry guess=read opt=(tight,modredundant)
 --------------------------------------------------------------------

 -----------------------------------
 Geometry optimization at the 2D-PES
 -----------------------------------
 Symbolic Z-matrix:
 Charge =  0 Multiplicity = 1

 SCF Done:  E(RHF) =  -226.389186308     A.U. after   12 cycles
 SCF Done:  E(RHF) =  -226.389194573     A.U. after   12 cycles
 SCF Done:  E(RHF) =  -226.389200018     A.U. after   10 cycles
 SCF Done:  E(RHF) =  -226.389200040     A.U. after    8 cycles
 SCF Done:  E(RHF) =  -226.389200046     A.U. after    7 cycles
 Optimization completed.
    -- Stationary point found.

                          Input orientation:
 ---------------------------------------------------------------------
 Center     Atomic      Atomic             Coordinates (Angstroms)
 Number     Number       Type             X           Y           Z
 ---------------------------------------------------------------------
      1          6           0        0.739667    0.617299    0.044562
      2          6           0        1.386341   -0.517473   -0.010106
      3          1           0        1.213241    1.576589    0.101164
      4          1           0        2.457148   -0.540079   -0.002576
      5          1           0        0.859116   -1.448287   -0.059920
      6          8           0       -0.672437    0.678655   -0.004271
      7          8           0       -1.195918    0.361736    1.333056
      8          1           0       -1.234069    1.243900    1.744423
 ---------------------------------------------------------------------

 Alpha  occ. eigenvalues --  -20.52495 -20.51856 -11.23847 -11.18066  -1.46428
 Alpha  occ. eigenvalues --   -1.22872  -1.03560  -0.79998  -0.69754  -0.67943
 Alpha  occ. eigenvalues --   -0.62679  -0.59114  -0.56239  -0.47497  -0.46460
 Alpha  occ. eigenvalues --   -0.38761
 Alpha virt. eigenvalues --    0.15000   0.26428   0.28777   0.30416   0.31983
 Alpha virt. eigenvalues --    0.36414   0.49507   0.56386   0.88236   0.96961
 Alpha virt. eigenvalues --    0.98561   1.06205   1.09775   1.11679   1.24754

 Mulliken charges:
               1
     1  C    0.106172
     2  C   -0.442896
     3  H    0.230290
     4  H    0.227245
     5  H    0.255705
     6  O   -0.398705
     7  O   -0.380169
     8  H    0.402358
 Sum of Mulliken charges =   0.00000

 Dipole moment (field-independent basis, Debye):
    X=              1.9914    Y=              1.3986    Z=              1.1159  Tot=              2.6771
 Quadrupole moment (field-independent basis, Debye-Ang):
   XX=            -22.7332   YY=            -19.1343   ZZ=            -22.8925
   XY=             -1.3872   XZ=             -1.2910   YZ=              4.0444

 Normal termination of Gaussian 09 at Fri Apr 12 16:47:13 2019.
