 Gaussian 09, Revision D.01,
 Gaussian 09:  AS64L-G09RevD.01 24-Apr-2013

 --------------------------------------------------------------------
 #p hf 3-21g scf=tight NoSymmetry guess=read opt=(tight,modredundant)
 --------------------------------------------------------------------

 -----------------------------------
 Geometry optimization at the 2D-PES
 -----------------------------------
 Symbolic Z-matrix:
 Charge =  0 Multiplicity = 1

 SCF Done:  E(RHF) =  -226.395829778     A.U. after   12 cycles
 SCF Done:  E(RHF) =  -226.395838943     A.U. after   12 cycles
 SCF Done:  E(RHF) =  -226.395853905     A.U. after   11 cycles
 SCF Done:  E(RHF) =  -226.395854011     A.U. after    9 cycles
 SCF Done:  E(RHF) =  -226.395854019     A.U. after    8 cycles
 SCF Done:  E(RHF) =  -226.395854020     A.U. after    6 cycles
 Optimization completed.
    -- Stationary point found.

                          Input orientation:
 ---------------------------------------------------------------------
 Center     Atomic      Atomic             Coordinates (Angstroms)
 Number     Number       Type             X           Y           Z
 ---------------------------------------------------------------------
      1          6           0        0.739782    0.568986    0.051671
      2          6           0        1.431995   -0.536828   -0.053105
      3          1           0        1.169755    1.547761    0.100948
      4          1           0        2.500763   -0.493885   -0.077020
      5          1           0        0.967290   -1.498389   -0.071730
      6          8           0       -0.650537    0.704230    0.055640
      7          8           0       -1.295247   -0.597094    0.160039
      8          1           0       -1.392155   -0.844729   -0.777673
 ---------------------------------------------------------------------

 Alpha  occ. eigenvalues --  -20.54449 -20.53388 -11.24944 -11.16671  -1.48699
 Alpha  occ. eigenvalues --   -1.24347  -1.03755  -0.80076  -0.70513  -0.69760
 Alpha  occ. eigenvalues --   -0.65233  -0.56881  -0.54375  -0.52802  -0.48949
 Alpha  occ. eigenvalues --   -0.36650
 Alpha virt. eigenvalues --    0.19164   0.22319   0.28549   0.29375   0.33208
 Alpha virt. eigenvalues --    0.37022   0.49500   0.58398   0.88557   0.96453
 Alpha virt. eigenvalues --    1.00399   1.06683   1.09818   1.11623   1.24157

 Mulliken charges:
               1
     1  C    0.146426
     2  C   -0.516240
     3  H    0.263226
     4  H    0.225693
     5  H    0.237208
     6  O   -0.400628
     7  O   -0.368213
     8  H    0.412528
 Sum of Mulliken charges =   0.00000

 Dipole moment (field-independent basis, Debye):
    X=              1.3566    Y=             -0.6169    Z=             -1.8906  Tot=              2.4073
 Quadrupole moment (field-independent basis, Debye-Ang):
   XX=            -22.6755   YY=            -21.5927   ZZ=            -24.3825
   XY=              2.6343   XZ=              2.9546   YZ=              1.9068

 Normal termination of Gaussian 09 at Fri Apr 12 17:51:44 2019.
