 Gaussian 09, Revision D.01,
 Gaussian 09:  AS64L-G09RevD.01 24-Apr-2013

 --------------------------------------------------------------------
 #p hf 3-21g scf=tight NoSymmetry guess=read opt=(tight,modredundant)
 --------------------------------------------------------------------

 -----------------------------------
 Geometry optimization at the 2D-PES
 -----------------------------------
 Symbolic Z-matrix:
 Charge =  0 Multiplicity = 1

 SCF Done:  E(RHF) =  -226.396750829     A.U. after   13 cycles
 SCF Done:  E(RHF) =  -226.396755415     A.U. after   11 cycles
 SCF Done:  E(RHF) =  -226.396760514     A.U. after   10 cycles
 SCF Done:  E(RHF) =  -226.396760567     A.U. after    8 cycles
 SCF Done:  E(RHF) =  -226.396760574     A.U. after    7 cycles
 Optimization completed.
    -- Stationary point found.

                          Input orientation:
 ---------------------------------------------------------------------
 Center     Atomic      Atomic             Coordinates (Angstroms)
 Number     Number       Type             X           Y           Z
 ---------------------------------------------------------------------
      1          6           0        0.737832    0.574077    0.056510
      2          6           0        1.421701   -0.536555   -0.042051
      3          1           0        1.173166    1.551865    0.085158
      4          1           0        2.491267   -0.502478   -0.063138
      5          1           0        0.940642   -1.489385   -0.081926
      6          8           0       -0.654326    0.708718    0.054657
      7          8           0       -1.273478   -0.568868    0.398967
      8          1           0       -1.759694   -0.310776    1.200383
 ---------------------------------------------------------------------

 Alpha  occ. eigenvalues --  -20.53830 -20.52794 -11.24244 -11.16100  -1.47941
 Alpha  occ. eigenvalues --   -1.23911  -1.03010  -0.79489  -0.71068  -0.67188
 Alpha  occ. eigenvalues --   -0.63793  -0.60115  -0.54341  -0.49976  -0.48596
 Alpha  occ. eigenvalues --   -0.36115
 Alpha virt. eigenvalues --    0.19053   0.23500   0.28823   0.30100   0.33776
 Alpha virt. eigenvalues --    0.37289   0.49874   0.58741   0.88986   0.96918
 Alpha virt. eigenvalues --    1.01530   1.07265   1.10563   1.12921   1.22162

 Mulliken charges:
               1
     1  C    0.142291
     2  C   -0.500772
     3  H    0.255525
     4  H    0.220109
     5  H    0.254848
     6  O   -0.411428
     7  O   -0.379594
     8  H    0.419021
 Sum of Mulliken charges =   0.00000

 Dipole moment (field-independent basis, Debye):
    X=              0.5920    Y=              0.2952    Z=              1.8170  Tot=              1.9337
 Quadrupole moment (field-independent basis, Debye-Ang):
   XX=            -19.9824   YY=            -22.8734   ZZ=            -22.7937
   XY=              1.2133   XZ=             -3.7138   YZ=             -0.1112

 Normal termination of Gaussian 09 at Fri Apr 12 17:39:00 2019.
