 Gaussian 09, Revision D.01,
 Gaussian 09:  AS64L-G09RevD.01 24-Apr-2013

 --------------------------------------------------------------------
 #p hf 3-21g scf=tight NoSymmetry guess=read opt=(tight,modredundant)
 --------------------------------------------------------------------

 -----------------------------------
 Geometry optimization at the 2D-PES
 -----------------------------------
 Symbolic Z-matrix:
 Charge =  0 Multiplicity = 1

 SCF Done:  E(RHF) =  -226.398123261     A.U. after   13 cycles
 SCF Done:  E(RHF) =  -226.398123834     A.U. after   11 cycles
 SCF Done:  E(RHF) =  -226.398124130     A.U. after    9 cycles
 SCF Done:  E(RHF) =  -226.398124139     A.U. after    8 cycles
 SCF Done:  E(RHF) =  -226.398124140     A.U. after    6 cycles
 Optimization completed.
    -- Stationary point found.

                          Input orientation:
 ---------------------------------------------------------------------
 Center     Atomic      Atomic             Coordinates (Angstroms)
 Number     Number       Type             X           Y           Z
 ---------------------------------------------------------------------
      1          6           0        0.731033    0.572033    0.041716
      2          6           0        1.417002   -0.538367   -0.048741
      3          1           0        1.165831    1.548821    0.096105
      4          1           0        2.486590   -0.500400   -0.056600
      5          1           0        0.940939   -1.492537   -0.101680
      6          8           0       -0.653799    0.712079    0.048129
      7          8           0       -1.266609   -0.611150    0.175983
      8          1           0       -2.200587   -0.344096    0.164731
 ---------------------------------------------------------------------

 Alpha  occ. eigenvalues --  -20.53812 -20.52649 -11.24139 -11.15600  -1.47794
 Alpha  occ. eigenvalues --   -1.24077  -1.02631  -0.79031  -0.71940  -0.64853
 Alpha  occ. eigenvalues --   -0.64108  -0.61699  -0.53573  -0.50769  -0.48212
 Alpha  occ. eigenvalues --   -0.35380
 Alpha virt. eigenvalues --    0.20134   0.23106   0.28579   0.30616   0.34344
 Alpha virt. eigenvalues --    0.37455   0.50271   0.59251   0.89458   0.97600
 Alpha virt. eigenvalues --    1.00751   1.07709   1.10776   1.12768   1.24259

 Mulliken charges:
               1
     1  C    0.159044
     2  C   -0.506957
     3  H    0.257206
     4  H    0.217940
     5  H    0.255355
     6  O   -0.423274
     7  O   -0.384335
     8  H    0.425021
 Sum of Mulliken charges =   0.00000

 Dipole moment (field-independent basis, Debye):
    X=             -0.4430    Y=              0.3428    Z=              0.0193  Tot=              0.5605
 Quadrupole moment (field-independent basis, Debye-Ang):
   XX=            -15.9003   YY=            -22.9101   ZZ=            -25.8362
   XY=              1.6700   XZ=             -0.2515   YZ=              0.3437

 Normal termination of Gaussian 09 at Fri Apr 12 17:49:34 2019.
