 Gaussian 09, Revision D.01,
 Gaussian 09:  AS64L-G09RevD.01 24-Apr-2013

 --------------------------------------------------------------------
 #p hf 3-21g scf=tight NoSymmetry guess=read opt=(tight,modredundant)
 --------------------------------------------------------------------

 -----------------------------------
 Geometry optimization at the 2D-PES
 -----------------------------------
 Symbolic Z-matrix:
 Charge =  0 Multiplicity = 1

 SCF Done:  E(RHF) =  -226.395020570     A.U. after   13 cycles
 SCF Done:  E(RHF) =  -226.395026951     A.U. after   11 cycles
 SCF Done:  E(RHF) =  -226.395030057     A.U. after   10 cycles
 SCF Done:  E(RHF) =  -226.395030104     A.U. after    8 cycles
 SCF Done:  E(RHF) =  -226.395030109     A.U. after    7 cycles
 Optimization completed.
    -- Stationary point found.

                          Input orientation:
 ---------------------------------------------------------------------
 Center     Atomic      Atomic             Coordinates (Angstroms)
 Number     Number       Type             X           Y           Z
 ---------------------------------------------------------------------
      1          6           0        0.727371    0.639244    0.020291
      2          6           0        1.368734   -0.501012   -0.023717
      3          1           0        1.185501    1.602862    0.069021
      4          1           0        2.437933   -0.525468    0.022589
      5          1           0        0.843511   -1.432577   -0.082753
      6          8           0       -0.676876    0.669134    0.054870
      7          8           0       -1.089128    1.778258   -0.812723
      8          1           0       -1.482639    1.288973   -1.556000
 ---------------------------------------------------------------------

 Alpha  occ. eigenvalues --  -20.53452 -20.52493 -11.24320 -11.17311  -1.47557
 Alpha  occ. eigenvalues --   -1.23741  -1.03237  -0.79825  -0.71849  -0.66144
 Alpha  occ. eigenvalues --   -0.63054  -0.61035  -0.55566  -0.48755  -0.48198
 Alpha  occ. eigenvalues --   -0.37418
 Alpha virt. eigenvalues --    0.17305   0.24677   0.27776   0.31378   0.33104
 Alpha virt. eigenvalues --    0.35821   0.49299   0.57031   0.89698   0.96708
 Alpha virt. eigenvalues --    0.99565   1.06502   1.10394   1.12220   1.22520

 Mulliken charges:
               1
     1  C    0.146128
     2  C   -0.492438
     3  H    0.255808
     4  H    0.228646
     5  H    0.239369
     6  O   -0.404828
     7  O   -0.386121
     8  H    0.413438
 Sum of Mulliken charges =   0.00000

 Dipole moment (field-independent basis, Debye):
    X=              1.0223    Y=             -0.8301    Z=             -1.7306  Tot=              2.1747
 Quadrupole moment (field-independent basis, Debye-Ang):
   XX=            -20.9477   YY=            -25.0521   ZZ=            -21.7399
   XY=              1.3721   XZ=              3.5738   YZ=             -1.1090

 Normal termination of Gaussian 09 at Fri Apr 12 15:22:18 2019.
