 Gaussian 09, Revision D.01,
 Gaussian 09:  AS64L-G09RevD.01 24-Apr-2013

 --------------------------------------------------------------------
 #p hf 3-21g scf=tight NoSymmetry guess=read opt=(tight,modredundant)
 --------------------------------------------------------------------

 -----------------------------------
 Geometry optimization at the 2D-PES
 -----------------------------------
 Symbolic Z-matrix:
 Charge =  0 Multiplicity = 1

 SCF Done:  E(RHF) =  -226.397940440     A.U. after   13 cycles
 SCF Done:  E(RHF) =  -226.397945979     A.U. after   11 cycles
 SCF Done:  E(RHF) =  -226.397955100     A.U. after   11 cycles
 SCF Done:  E(RHF) =  -226.397955182     A.U. after    9 cycles
 SCF Done:  E(RHF) =  -226.397955189     A.U. after    8 cycles
 SCF Done:  E(RHF) =  -226.397955190     A.U. after    6 cycles
 Optimization completed.
    -- Stationary point found.

                          Input orientation:
 ---------------------------------------------------------------------
 Center     Atomic      Atomic             Coordinates (Angstroms)
 Number     Number       Type             X           Y           Z
 ---------------------------------------------------------------------
      1          6           0        0.736385    0.569750    0.042838
      2          6           0        1.425985   -0.537914   -0.051936
      3          1           0        1.167311    1.547863    0.101092
      4          1           0        2.495268   -0.497694   -0.064290
      5          1           0        0.952320   -1.493846   -0.089721
      6          8           0       -0.652959    0.707650    0.049260
      7          8           0       -1.282044   -0.603192    0.170260
      8          1           0       -1.799444   -0.624227   -0.652933
 ---------------------------------------------------------------------

 Alpha  occ. eigenvalues --  -20.54104 -20.53057 -11.24427 -11.16034  -1.48261
 Alpha  occ. eigenvalues --   -1.24164  -1.03106  -0.79453  -0.70874  -0.68507
 Alpha  occ. eigenvalues --   -0.64767  -0.57916  -0.53865  -0.51958  -0.48656
 Alpha  occ. eigenvalues --   -0.35987
 Alpha virt. eigenvalues --    0.19668   0.22850   0.28798   0.29981   0.33713
 Alpha virt. eigenvalues --    0.37306   0.49766   0.58835   0.89027   0.96846
 Alpha virt. eigenvalues --    1.01790   1.07282   1.10431   1.12767   1.22118

 Mulliken charges:
               1
     1  C    0.150404
     2  C   -0.509291
     3  H    0.259334
     4  H    0.220689
     5  H    0.247440
     6  O   -0.411404
     7  O   -0.375946
     8  H    0.418773
 Sum of Mulliken charges =   0.00000

 Dipole moment (field-independent basis, Debye):
    X=              0.4590    Y=             -0.2322    Z=             -1.7088  Tot=              1.7845
 Quadrupole moment (field-independent basis, Debye-Ang):
   XX=            -19.7430   YY=            -22.3221   ZZ=            -24.7941
   XY=              2.5210   XZ=              3.3056   YZ=              1.3865

 Normal termination of Gaussian 09 at Fri Apr 12 17:51:03 2019.
