 Gaussian 09, Revision D.01,
 Gaussian 09:  AS64L-G09RevD.01 24-Apr-2013

 --------------------------------------------------------------------
 #p hf 3-21g scf=tight NoSymmetry guess=read opt=(tight,modredundant)
 --------------------------------------------------------------------

 -----------------------------------
 Geometry optimization at the 2D-PES
 -----------------------------------
 Symbolic Z-matrix:
 Charge =  0 Multiplicity = 1

 SCF Done:  E(RHF) =  -226.381803636     A.U. after   13 cycles
 SCF Done:  E(RHF) =  -226.381815976     A.U. after   12 cycles
 SCF Done:  E(RHF) =  -226.381823865     A.U. after   11 cycles
 SCF Done:  E(RHF) =  -226.381824027     A.U. after    8 cycles
 SCF Done:  E(RHF) =  -226.381824062     A.U. after    7 cycles
 SCF Done:  E(RHF) =  -226.381824063     A.U. after    6 cycles
 Optimization completed.
    -- Stationary point found.

                          Input orientation:
 ---------------------------------------------------------------------
 Center     Atomic      Atomic             Coordinates (Angstroms)
 Number     Number       Type             X           Y           Z
 ---------------------------------------------------------------------
      1          6           0        0.739752    0.602517    0.021250
      2          6           0        1.420158   -0.519390    0.005857
      3          1           0        1.188255    1.571565    0.086514
      4          1           0        2.489817   -0.503354    0.031607
      5          1           0        0.938001   -1.477304   -0.009135
      6          8           0       -0.660039    0.684340   -0.000351
      7          8           0       -1.252508   -0.132426   -1.074494
      8          1           0       -0.483389   -0.539577   -1.515686
 ---------------------------------------------------------------------

 Alpha  occ. eigenvalues --  -20.53472 -20.52569 -11.26017 -11.19170  -1.47265
 Alpha  occ. eigenvalues --   -1.24011  -1.05432  -0.81252  -0.72620  -0.67984
 Alpha  occ. eigenvalues --   -0.61888  -0.59520  -0.55719  -0.53648  -0.46532
 Alpha  occ. eigenvalues --   -0.38441
 Alpha virt. eigenvalues --    0.14664   0.24108   0.27641   0.29021   0.31115
 Alpha virt. eigenvalues --    0.36636   0.49977   0.55812   0.87369   0.95808
 Alpha virt. eigenvalues --    0.99976   1.04614   1.08006   1.11207   1.23043

 Mulliken charges:
               1
     1  C    0.111517
     2  C   -0.506921
     3  H    0.262138
     4  H    0.239637
     5  H    0.242820
     6  O   -0.386470
     7  O   -0.366437
     8  H    0.403715
 Sum of Mulliken charges =   0.00000

 Dipole moment (field-independent basis, Debye):
    X=              3.4676    Y=             -0.9344    Z=             -0.9618  Tot=              3.7179
 Quadrupole moment (field-independent basis, Debye-Ang):
   XX=            -25.5862   YY=            -21.5681   ZZ=            -23.2185
   XY=              1.6037   XZ=             -0.9856   YZ=              1.5399

 Normal termination of Gaussian 09 at Fri Apr 12 14:53:03 2019.
