 Gaussian 09, Revision D.01,
 Gaussian 09:  AS64L-G09RevD.01 24-Apr-2013

 --------------------------------------------------------------------
 #p hf 3-21g scf=tight NoSymmetry guess=read opt=(tight,modredundant)
 --------------------------------------------------------------------

 -----------------------------------
 Geometry optimization at the 2D-PES
 -----------------------------------
 Symbolic Z-matrix:
 Charge =  0 Multiplicity = 1

 SCF Done:  E(RHF) =  -226.383391739     A.U. after   13 cycles
 SCF Done:  E(RHF) =  -226.383420233     A.U. after   13 cycles
 SCF Done:  E(RHF) =  -226.383463995     A.U. after   12 cycles
 SCF Done:  E(RHF) =  -226.383464214     A.U. after   10 cycles
 SCF Done:  E(RHF) =  -226.383464266     A.U. after    8 cycles
 SCF Done:  E(RHF) =  -226.383464268     A.U. after    7 cycles
 Optimization completed.
    -- Stationary point found.

                          Input orientation:
 ---------------------------------------------------------------------
 Center     Atomic      Atomic             Coordinates (Angstroms)
 Number     Number       Type             X           Y           Z
 ---------------------------------------------------------------------
      1          6           0        0.748392    0.575351    0.032632
      2          6           0        1.444609   -0.534865   -0.040096
      3          1           0        1.187656    1.550069    0.068557
      4          1           0        2.513439   -0.494219   -0.038432
      5          1           0        0.993931   -1.501942   -0.141523
      6          8           0       -0.640676    0.690646    0.047593
      7          8           0       -1.317452   -0.460672    0.653609
      8          1           0       -0.597691   -0.980350    1.057185
 ---------------------------------------------------------------------

 Alpha  occ. eigenvalues --  -20.54323 -20.53085 -11.26427 -11.18617  -1.48204
 Alpha  occ. eigenvalues --   -1.24648  -1.05446  -0.81407  -0.73088  -0.68262
 Alpha  occ. eigenvalues --   -0.63466  -0.58804  -0.55328  -0.54139  -0.48045
 Alpha  occ. eigenvalues --   -0.37747
 Alpha virt. eigenvalues --    0.16206   0.22705   0.27393   0.28506   0.32766
 Alpha virt. eigenvalues --    0.36656   0.49622   0.57597   0.87581   0.95586
 Alpha virt. eigenvalues --    1.00890   1.05059   1.07914   1.11198   1.23076

 Mulliken charges:
               1
     1  C    0.135927
     2  C   -0.535055
     3  H    0.270292
     4  H    0.240197
     5  H    0.230542
     6  O   -0.388062
     7  O   -0.363845
     8  H    0.410004
 Sum of Mulliken charges =   0.00000

 Dipole moment (field-independent basis, Debye):
    X=              3.1782    Y=             -1.0416    Z=              0.8656  Tot=              3.4547
 Quadrupole moment (field-independent basis, Debye-Ang):
   XX=            -25.7551   YY=            -20.6256   ZZ=            -24.2769
   XY=              1.6262   XZ=              0.4071   YZ=             -1.3449

 Normal termination of Gaussian 09 at Fri Apr 12 17:22:49 2019.
