 Gaussian 09, Revision D.01,
 Gaussian 09:  AS64L-G09RevD.01 24-Apr-2013

 --------------------------------------------------------------------
 #p hf 3-21g scf=tight NoSymmetry guess=read opt=(tight,modredundant)
 --------------------------------------------------------------------

 -----------------------------------
 Geometry optimization at the 2D-PES
 -----------------------------------
 Symbolic Z-matrix:
 Charge =  0 Multiplicity = 1

 SCF Done:  E(RHF) =  -226.384325715     A.U. after   13 cycles
 SCF Done:  E(RHF) =  -226.384349289     A.U. after   12 cycles
 SCF Done:  E(RHF) =  -226.384376882     A.U. after   12 cycles
 SCF Done:  E(RHF) =  -226.384377085     A.U. after    9 cycles
 SCF Done:  E(RHF) =  -226.384377131     A.U. after    9 cycles
 SCF Done:  E(RHF) =  -226.384377132     A.U. after    6 cycles
 Optimization completed.
    -- Stationary point found.

                          Input orientation:
 ---------------------------------------------------------------------
 Center     Atomic      Atomic             Coordinates (Angstroms)
 Number     Number       Type             X           Y           Z
 ---------------------------------------------------------------------
      1          6           0        0.752300    0.635204    0.017182
      2          6           0        1.380276   -0.512583   -0.013142
      3          1           0        1.236323    1.586012    0.112900
      4          1           0        2.448878   -0.547776    0.035374
      5          1           0        0.843719   -1.437082   -0.076713
      6          8           0       -0.650253    0.685079    0.043021
      7          8           0       -1.113592    2.004514   -0.398123
      8          1           0       -0.519876    2.231154   -1.137716
 ---------------------------------------------------------------------

 Alpha  occ. eigenvalues --  -20.54047 -20.53113 -11.25384 -11.17915  -1.48031
 Alpha  occ. eigenvalues --   -1.24340  -1.04081  -0.81482  -0.72301  -0.66417
 Alpha  occ. eigenvalues --   -0.64410  -0.58713  -0.54921  -0.53186  -0.48125
 Alpha  occ. eigenvalues --   -0.37133
 Alpha virt. eigenvalues --    0.16283   0.23182   0.26298   0.31019   0.33134
 Alpha virt. eigenvalues --    0.35316   0.49603   0.56416   0.88718   0.96318
 Alpha virt. eigenvalues --    0.99006   1.06233   1.09811   1.10650   1.24298

 Mulliken charges:
               1
     1  C    0.108970
     2  C   -0.488986
     3  H    0.245578
     4  H    0.231681
     5  H    0.249889
     6  O   -0.380443
     7  O   -0.367408
     8  H    0.400719
 Sum of Mulliken charges =   0.00000

 Dipole moment (field-independent basis, Debye):
    X=              3.0284    Y=              0.5453    Z=             -1.5414  Tot=              3.4416
 Quadrupole moment (field-independent basis, Debye-Ang):
   XX=            -24.9842   YY=            -19.8537   ZZ=            -23.2589
   XY=              3.3293   XZ=              0.6022   YZ=             -3.5718

 Normal termination of Gaussian 09 at Fri Apr 12 15:32:23 2019.
