 Gaussian 09, Revision D.01,
 Gaussian 09:  AS64L-G09RevD.01 24-Apr-2013

 --------------------------------------------------------------------
 #p hf 3-21g scf=tight NoSymmetry guess=read opt=(tight,modredundant)
 --------------------------------------------------------------------

 -----------------------------------
 Geometry optimization at the 2D-PES
 -----------------------------------
 Symbolic Z-matrix:
 Charge =  0 Multiplicity = 1

 SCF Done:  E(RHF) =  -226.395309589     A.U. after   13 cycles
 SCF Done:  E(RHF) =  -226.395317760     A.U. after   11 cycles
 SCF Done:  E(RHF) =  -226.395324516     A.U. after   10 cycles
 SCF Done:  E(RHF) =  -226.395324570     A.U. after    8 cycles
 SCF Done:  E(RHF) =  -226.395324571     A.U. after    7 cycles
 Optimization completed.
    -- Stationary point found.

                          Input orientation:
 ---------------------------------------------------------------------
 Center     Atomic      Atomic             Coordinates (Angstroms)
 Number     Number       Type             X           Y           Z
 ---------------------------------------------------------------------
      1          6           0        0.734570    0.636690    0.054522
      2          6           0        1.369753   -0.506165    0.000205
      3          1           0        1.199836    1.596334    0.117943
      4          1           0        2.439549   -0.531785   -0.018768
      5          1           0        0.838855   -1.435259   -0.036034
      6          8           0       -0.665552    0.679764   -0.013181
      7          8           0       -1.093415    1.849980    0.757523
      8          1           0       -1.553327    2.354494    0.065018
 ---------------------------------------------------------------------

 Alpha  occ. eigenvalues --  -20.53591 -20.52739 -11.24279 -11.16739  -1.47781
 Alpha  occ. eigenvalues --   -1.23943  -1.02885  -0.79800  -0.70417  -0.68286
 Alpha  occ. eigenvalues --   -0.65192  -0.56268  -0.54724  -0.52533  -0.48003
 Alpha  occ. eigenvalues --   -0.36372
 Alpha virt. eigenvalues --    0.18072   0.24006   0.27729   0.31928   0.33270
 Alpha virt. eigenvalues --    0.35846   0.49494   0.57448   0.90099   0.97049
 Alpha virt. eigenvalues --    1.00128   1.06582   1.10829   1.12554   1.22517

 Mulliken charges:
               1
     1  C    0.159028
     2  C   -0.497354
     3  H    0.247734
     4  H    0.226294
     5  H    0.242870
     6  O   -0.410403
     7  O   -0.382583
     8  H    0.414414
 Sum of Mulliken charges =   0.00000

 Dipole moment (field-independent basis, Debye):
    X=              0.8118    Y=              1.3222    Z=             -1.2679  Tot=              2.0037
 Quadrupole moment (field-independent basis, Debye-Ang):
   XX=            -20.4904   YY=            -17.0746   ZZ=            -26.9213
   XY=             -2.4377   XZ=              1.5723   YZ=             -2.4354

 Normal termination of Gaussian 09 at Fri Apr 12 15:58:12 2019.
