 Gaussian 09, Revision D.01,
 Gaussian 09:  AS64L-G09RevD.01 24-Apr-2013

 --------------------------------------------------------------------
 #p hf 3-21g scf=tight NoSymmetry guess=read opt=(tight,modredundant)
 --------------------------------------------------------------------

 -----------------------------------
 Geometry optimization at the 2D-PES
 -----------------------------------
 Symbolic Z-matrix:
 Charge =  0 Multiplicity = 1

 SCF Done:  E(RHF) =  -226.388509420     A.U. after   13 cycles
 SCF Done:  E(RHF) =  -226.388520946     A.U. after   12 cycles
 SCF Done:  E(RHF) =  -226.388531675     A.U. after   12 cycles
 SCF Done:  E(RHF) =  -226.388531787     A.U. after    9 cycles
 SCF Done:  E(RHF) =  -226.388531803     A.U. after    8 cycles
 SCF Done:  E(RHF) =  -226.388531804     A.U. after    6 cycles
 Optimization completed.
    -- Stationary point found.

                          Input orientation:
 ---------------------------------------------------------------------
 Center     Atomic      Atomic             Coordinates (Angstroms)
 Number     Number       Type             X           Y           Z
 ---------------------------------------------------------------------
      1          6           0        0.747265    0.591891    0.051472
      2          6           0        1.418215   -0.530014   -0.031027
      3          1           0        1.193088    1.564498    0.072042
      4          1           0        2.488383   -0.520605   -0.040274
      5          1           0        0.918202   -1.475327   -0.079200
      6          8           0       -0.654184    0.698190    0.038688
      7          8           0       -1.260270   -0.379994    0.825204
      8          1           0       -0.766960   -0.338413    1.666513
 ---------------------------------------------------------------------

 Alpha  occ. eigenvalues --  -20.53697 -20.52806 -11.25111 -11.18088  -1.47728
 Alpha  occ. eigenvalues --   -1.23760  -1.04499  -0.80847  -0.70737  -0.68896
 Alpha  occ. eigenvalues --   -0.62908  -0.57782  -0.57178  -0.51521  -0.47294
 Alpha  occ. eigenvalues --   -0.37821
 Alpha virt. eigenvalues --    0.15878   0.24805   0.28086   0.28828   0.31764
 Alpha virt. eigenvalues --    0.36840   0.49651   0.56692   0.87657   0.96719
 Alpha virt. eigenvalues --    0.98882   1.05584   1.09023   1.10714   1.24323

 Mulliken charges:
               1
     1  C    0.097780
     2  C   -0.489843
     3  H    0.258382
     4  H    0.230821
     5  H    0.254600
     6  O   -0.385285
     7  O   -0.368764
     8  H    0.402307
 Sum of Mulliken charges =   0.00000

 Dipole moment (field-independent basis, Debye):
    X=              2.8348    Y=             -0.1593    Z=              1.8220  Tot=              3.3736
 Quadrupole moment (field-independent basis, Debye-Ang):
   XX=            -25.0703   YY=            -22.3427   ZZ=            -21.1181
   XY=              0.9464   XZ=             -0.5873   YZ=             -0.3111

 Normal termination of Gaussian 09 at Fri Apr 12 17:20:45 2019.
