 Gaussian 09, Revision D.01,
 Gaussian 09:  AS64L-G09RevD.01 24-Apr-2013

 --------------------------------------------------------------------
 #p hf 3-21g scf=tight NoSymmetry guess=read opt=(tight,modredundant)
 --------------------------------------------------------------------

 -----------------------------------
 Geometry optimization at the 2D-PES
 -----------------------------------
 Symbolic Z-matrix:
 Charge =  0 Multiplicity = 1

 SCF Done:  E(RHF) =  -226.390253403     A.U. after   13 cycles
 SCF Done:  E(RHF) =  -226.390258752     A.U. after   11 cycles
 SCF Done:  E(RHF) =  -226.390264703     A.U. after   10 cycles
 SCF Done:  E(RHF) =  -226.390264720     A.U. after    8 cycles
 SCF Done:  E(RHF) =  -226.390264723     A.U. after    6 cycles
 Optimization completed.
    -- Stationary point found.

                          Input orientation:
 ---------------------------------------------------------------------
 Center     Atomic      Atomic             Coordinates (Angstroms)
 Number     Number       Type             X           Y           Z
 ---------------------------------------------------------------------
      1          6           0        0.745080    0.597123    0.059000
      2          6           0        1.406677   -0.528077   -0.025423
      3          1           0        1.200976    1.565740    0.078631
      4          1           0        2.477308   -0.528066   -0.037740
      5          1           0        0.897514   -1.469104   -0.053975
      6          8           0       -0.662034    0.700248    0.030883
      7          8           0       -1.244229   -0.240237    0.991944
      8          1           0       -1.136315    0.241505    1.831883
 ---------------------------------------------------------------------

 Alpha  occ. eigenvalues --  -20.53104 -20.52411 -11.24230 -11.17607  -1.47183
 Alpha  occ. eigenvalues --   -1.23244  -1.03723  -0.80186  -0.69778  -0.68570
 Alpha  occ. eigenvalues --   -0.62168  -0.59840  -0.56104  -0.48964  -0.47342
 Alpha  occ. eigenvalues --   -0.37731
 Alpha virt. eigenvalues --    0.15823   0.25671   0.28713   0.29468   0.32268
 Alpha virt. eigenvalues --    0.36941   0.49717   0.56955   0.88103   0.96590
 Alpha virt. eigenvalues --    0.99517   1.06401   1.09746   1.11280   1.23996

 Mulliken charges:
               1
     1  C    0.101430
     2  C   -0.466750
     3  H    0.247441
     4  H    0.226337
     5  H    0.257181
     6  O   -0.395166
     7  O   -0.375697
     8  H    0.405224
 Sum of Mulliken charges =   0.00000

 Dipole moment (field-independent basis, Debye):
    X=              2.1284    Y=              0.6185    Z=              1.9367  Tot=              2.9434
 Quadrupole moment (field-independent basis, Debye-Ang):
   XX=            -23.5604   YY=            -22.3064   ZZ=            -20.4177
   XY=              0.0365   XZ=             -1.9431   YZ=              1.7777

 Normal termination of Gaussian 09 at Fri Apr 12 17:08:06 2019.
