 Gaussian 09, Revision D.01,
 Gaussian 09:  AS64L-G09RevD.01 24-Apr-2013

 --------------------------------------------------------------------
 #p hf 3-21g scf=tight NoSymmetry guess=read opt=(tight,modredundant)
 --------------------------------------------------------------------

 -----------------------------------
 Geometry optimization at the 2D-PES
 -----------------------------------
 Symbolic Z-matrix:
 Charge =  0 Multiplicity = 1

 SCF Done:  E(RHF) =  -226.392249513     A.U. after   13 cycles
 SCF Done:  E(RHF) =  -226.392250676     A.U. after   11 cycles
 SCF Done:  E(RHF) =  -226.392250743     A.U. after    8 cycles
 SCF Done:  E(RHF) =  -226.392250763     A.U. after    7 cycles
 SCF Done:  E(RHF) =  -226.392250764     A.U. after    6 cycles
 Optimization completed.
    -- Stationary point found.

                          Input orientation:
 ---------------------------------------------------------------------
 Center     Atomic      Atomic             Coordinates (Angstroms)
 Number     Number       Type             X           Y           Z
 ---------------------------------------------------------------------
      1          6           0        0.726918    0.619426    0.043104
      2          6           0        1.375550   -0.514876   -0.007675
      3          1           0        1.195777    1.578043    0.118635
      4          1           0        2.446140   -0.534444    0.010594
      5          1           0        0.853569   -1.448276   -0.062828
      6          8           0       -0.678980    0.676114   -0.015001
      7          8           0       -1.169009    0.350110    1.341948
      8          1           0       -2.124694    0.420690    1.174810
 ---------------------------------------------------------------------

 Alpha  occ. eigenvalues --  -20.52025 -20.51415 -11.23475 -11.17568  -1.45751
 Alpha  occ. eigenvalues --   -1.22814  -1.03026  -0.78915  -0.69617  -0.67357
 Alpha  occ. eigenvalues --   -0.64036  -0.57742  -0.54912  -0.51149  -0.43633
 Alpha  occ. eigenvalues --   -0.38149
 Alpha virt. eigenvalues --    0.15448   0.27732   0.29376   0.30522   0.32047
 Alpha virt. eigenvalues --    0.36832   0.49747   0.56920   0.88995   0.97601
 Alpha virt. eigenvalues --    0.99255   1.07065   1.10399   1.12317   1.23725

 Mulliken charges:
               1
     1  C    0.137805
     2  C   -0.447456
     3  H    0.236868
     4  H    0.226531
     5  H    0.246265
     6  O   -0.422680
     7  O   -0.391308
     8  H    0.413975
 Sum of Mulliken charges =   0.00000

 Dipole moment (field-independent basis, Debye):
    X=              0.0515    Y=             -0.1831    Z=             -0.0320  Tot=              0.1929
 Quadrupole moment (field-independent basis, Debye-Ang):
   XX=            -15.8781   YY=            -22.1515   ZZ=            -26.5084
   XY=              0.1175   XZ=             -2.0745   YZ=              0.4404

 Normal termination of Gaussian 09 at Fri Apr 12 16:45:08 2019.
