 Gaussian 09, Revision D.01,
 Gaussian 09:  AS64L-G09RevD.01 24-Apr-2013

 --------------------------------------------------------------------
 #p hf 3-21g scf=tight NoSymmetry guess=read opt=(tight,modredundant)
 --------------------------------------------------------------------

 -----------------------------------
 Geometry optimization at the 2D-PES
 -----------------------------------
 Symbolic Z-matrix:
 Charge =  0 Multiplicity = 1

 SCF Done:  E(RHF) =  -226.392831290     A.U. after   12 cycles
 SCF Done:  E(RHF) =  -226.392842329     A.U. after   11 cycles
 SCF Done:  E(RHF) =  -226.392848184     A.U. after   10 cycles
 SCF Done:  E(RHF) =  -226.392848268     A.U. after    9 cycles
 SCF Done:  E(RHF) =  -226.392848281     A.U. after    6 cycles
 Optimization completed.
    -- Stationary point found.

                          Input orientation:
 ---------------------------------------------------------------------
 Center     Atomic      Atomic             Coordinates (Angstroms)
 Number     Number       Type             X           Y           Z
 ---------------------------------------------------------------------
      1          6           0        0.732622    0.629145    0.046308
      2          6           0        1.372451   -0.510216    0.002608
      3          1           0        1.204368    1.586769    0.123787
      4          1           0        2.442870   -0.539700    0.001942
      5          1           0        0.837676   -1.436365   -0.048961
      6          8           0       -0.673971    0.669201   -0.023998
      7          8           0       -1.148356    1.073183    1.309218
      8          1           0       -1.479525    1.968936    1.121795
 ---------------------------------------------------------------------

 Alpha  occ. eigenvalues --  -20.52779 -20.51949 -11.23914 -11.17697  -1.46712
 Alpha  occ. eigenvalues --   -1.23197  -1.03243  -0.79730  -0.69603  -0.68200
 Alpha  occ. eigenvalues --   -0.64649  -0.57202  -0.55576  -0.49362  -0.46447
 Alpha  occ. eigenvalues --   -0.38133
 Alpha virt. eigenvalues --    0.15965   0.26370   0.28214   0.31210   0.32527
 Alpha virt. eigenvalues --    0.35867   0.49130   0.56719   0.88895   0.97270
 Alpha virt. eigenvalues --    0.98718   1.06981   1.10292   1.12338   1.23524

 Mulliken charges:
               1
     1  C    0.136179
     2  C   -0.458413
     3  H    0.227182
     4  H    0.226818
     5  H    0.251013
     6  O   -0.404552
     7  O   -0.385050
     8  H    0.406824
 Sum of Mulliken charges =   0.00000

 Dipole moment (field-independent basis, Debye):
    X=              1.3136    Y=              1.6594    Z=             -0.1231  Tot=              2.1200
 Quadrupole moment (field-independent basis, Debye-Ang):
   XX=            -21.1306   YY=            -16.1274   ZZ=            -26.6760
   XY=             -2.7015   XZ=             -0.4278   YZ=              2.1081

 Normal termination of Gaussian 09 at Fri Apr 12 16:23:18 2019.
