 Gaussian 09, Revision D.01,
 Gaussian 09:  AS64L-G09RevD.01 24-Apr-2013

 --------------------------------------------------------------------
 #p hf 3-21g scf=tight NoSymmetry guess=read opt=(tight,modredundant)
 --------------------------------------------------------------------

 -----------------------------------
 Geometry optimization at the 2D-PES
 -----------------------------------
 Symbolic Z-matrix:
 Charge =  0 Multiplicity = 1

 SCF Done:  E(RHF) =  -226.395690072     A.U. after   13 cycles
 SCF Done:  E(RHF) =  -226.395695461     A.U. after   11 cycles
 SCF Done:  E(RHF) =  -226.395698680     A.U. after   10 cycles
 SCF Done:  E(RHF) =  -226.395698740     A.U. after    8 cycles
 SCF Done:  E(RHF) =  -226.395698743     A.U. after    6 cycles
 Optimization completed.
    -- Stationary point found.

                          Input orientation:
 ---------------------------------------------------------------------
 Center     Atomic      Atomic             Coordinates (Angstroms)
 Number     Number       Type             X           Y           Z
 ---------------------------------------------------------------------
      1          6           0        0.728945    0.634145    0.052360
      2          6           0        1.368266   -0.506262    0.004155
      3          1           0        1.191151    1.594872    0.127752
      4          1           0        2.438364   -0.532094   -0.010585
      5          1           0        0.836626   -1.434623   -0.038196
      6          8           0       -0.671315    0.670783   -0.024719
      7          8           0       -1.112623    1.508440    1.101712
      8          1           0       -1.827907    2.002710    0.667095
 ---------------------------------------------------------------------

 Alpha  occ. eigenvalues --  -20.53039 -20.52105 -11.23936 -11.17099  -1.46992
 Alpha  occ. eigenvalues --   -1.23544  -1.02871  -0.79489  -0.69324  -0.68652
 Alpha  occ. eigenvalues --   -0.64947  -0.56540  -0.54982  -0.51830  -0.46424
 Alpha  occ. eigenvalues --   -0.36994
 Alpha virt. eigenvalues --    0.16934   0.25968   0.28417   0.31715   0.32612
 Alpha virt. eigenvalues --    0.36030   0.49420   0.57239   0.89834   0.97286
 Alpha virt. eigenvalues --    0.99959   1.07000   1.10802   1.12801   1.22518

 Mulliken charges:
               1
     1  C    0.157048
     2  C   -0.479920
     3  H    0.241714
     4  H    0.226204
     5  H    0.244897
     6  O   -0.414968
     7  O   -0.390187
     8  H    0.415214
 Sum of Mulliken charges =   0.00000

 Dipole moment (field-independent basis, Debye):
    X=              0.3840    Y=              1.0999    Z=             -0.6720  Tot=              1.3450
 Quadrupole moment (field-independent basis, Debye-Ang):
   XX=            -18.4028   YY=            -18.0951   ZZ=            -27.3760
   XY=             -3.2892   XZ=             -0.0531   YZ=             -0.3435

 Normal termination of Gaussian 09 at Fri Apr 12 16:10:54 2019.
