 Gaussian 09, Revision D.01,
 Gaussian 09:  AS64L-G09RevD.01 24-Apr-2013

 --------------------------------------------------------------------
 #p hf 3-21g scf=tight NoSymmetry guess=read opt=(tight,modredundant)
 --------------------------------------------------------------------

 -----------------------------------
 Geometry optimization at the 2D-PES
 -----------------------------------
 Symbolic Z-matrix:
 Charge =  0 Multiplicity = 1

 SCF Done:  E(RHF) =  -226.396495257     A.U. after   13 cycles
 SCF Done:  E(RHF) =  -226.396500858     A.U. after   11 cycles
 SCF Done:  E(RHF) =  -226.396506294     A.U. after   10 cycles
 SCF Done:  E(RHF) =  -226.396506360     A.U. after    9 cycles
 SCF Done:  E(RHF) =  -226.396506371     A.U. after    8 cycles
 Optimization completed.
    -- Stationary point found.

                          Input orientation:
 ---------------------------------------------------------------------
 Center     Atomic      Atomic             Coordinates (Angstroms)
 Number     Number       Type             X           Y           Z
 ---------------------------------------------------------------------
      1          6           0        0.739342    0.574425    0.055213
      2          6           0        1.423247   -0.536361   -0.041754
      3          1           0        1.174014    1.552447    0.083989
      4          1           0        2.492819   -0.503027   -0.061939
      5          1           0        0.941191   -1.488618   -0.084177
      6          8           0       -0.654187    0.707744    0.054056
      7          8           0       -1.275340   -0.567049    0.400615
      8          1           0       -1.625409   -0.358213    1.283821
 ---------------------------------------------------------------------

 Alpha  occ. eigenvalues --  -20.53907 -20.52889 -11.24335 -11.16251  -1.48056
 Alpha  occ. eigenvalues --   -1.23919  -1.03162  -0.79661  -0.70791  -0.67849
 Alpha  occ. eigenvalues --   -0.63892  -0.59523  -0.54591  -0.50070  -0.48697
 Alpha  occ. eigenvalues --   -0.36302
 Alpha virt. eigenvalues --    0.18864   0.23491   0.28801   0.29918   0.33615
 Alpha virt. eigenvalues --    0.37240   0.49755   0.58615   0.88843   0.96740
 Alpha virt. eigenvalues --    1.01484   1.07126   1.10410   1.12564   1.22360

 Mulliken charges:
               1
     1  C    0.137572
     2  C   -0.501206
     3  H    0.256158
     4  H    0.220937
     5  H    0.254490
     6  O   -0.407358
     7  O   -0.377476
     8  H    0.416883
 Sum of Mulliken charges =   0.00000

 Dipole moment (field-independent basis, Debye):
    X=              0.8888    Y=              0.1964    Z=              1.9738  Tot=              2.1736
 Quadrupole moment (field-independent basis, Debye-Ang):
   XX=            -21.0230   YY=            -22.7986   ZZ=            -22.3247
   XY=              1.2908   XZ=             -3.6224   YZ=             -0.3028

 Normal termination of Gaussian 09 at Fri Apr 12 17:39:13 2019.
