 Gaussian 09, Revision D.01,
 Gaussian 09:  AS64L-G09RevD.01 24-Apr-2013

 --------------------------------------------------------------------
 #p hf 3-21g scf=tight NoSymmetry guess=read opt=(tight,modredundant)
 --------------------------------------------------------------------

 -----------------------------------
 Geometry optimization at the 2D-PES
 -----------------------------------
 Symbolic Z-matrix:
 Charge =  0 Multiplicity = 1

 SCF Done:  E(RHF) =  -226.381725701     A.U. after   13 cycles
 SCF Done:  E(RHF) =  -226.381738375     A.U. after   12 cycles
 SCF Done:  E(RHF) =  -226.381745269     A.U. after   11 cycles
 SCF Done:  E(RHF) =  -226.381745433     A.U. after    9 cycles
 SCF Done:  E(RHF) =  -226.381745439     A.U. after    7 cycles
 SCF Done:  E(RHF) =  -226.381745440     A.U. after    6 cycles
 Optimization completed.
    -- Stationary point found.

                          Input orientation:
 ---------------------------------------------------------------------
 Center     Atomic      Atomic             Coordinates (Angstroms)
 Number     Number       Type             X           Y           Z
 ---------------------------------------------------------------------
      1          6           0        0.744094    0.630698    0.033753
      2          6           0        1.390114   -0.508188   -0.006588
      3          1           0        1.215604    1.590945    0.087631
      4          1           0        2.460278   -0.533867    0.029218
      5          1           0        0.860522   -1.438463   -0.051499
      6          8           0       -0.665667    0.662707    0.036403
      7          8           0       -1.160587    0.963820   -1.327087
      8          1           0       -0.367398    0.897448   -1.891090
 ---------------------------------------------------------------------

 Alpha  occ. eigenvalues --  -20.52822 -20.51821 -11.25087 -11.19703  -1.46307
 Alpha  occ. eigenvalues --   -1.23397  -1.04952  -0.81327  -0.71847  -0.67408
 Alpha  occ. eigenvalues --   -0.60732  -0.59114  -0.56667  -0.52734  -0.44013
 Alpha  occ. eigenvalues --   -0.40006
 Alpha virt. eigenvalues --    0.13601   0.26627   0.27398   0.29445   0.30740
 Alpha virt. eigenvalues --    0.35888   0.48920   0.55232   0.87410   0.96760
 Alpha virt. eigenvalues --    0.97300   1.05068   1.08532   1.11201   1.23973

 Mulliken charges:
               1
     1  C    0.061679
     2  C   -0.445451
     3  H    0.243723
     4  H    0.235542
     5  H    0.258767
     6  O   -0.376166
     7  O   -0.376045
     8  H    0.397950
 Sum of Mulliken charges =   0.00000

 Dipole moment (field-independent basis, Debye):
    X=              3.7332    Y=             -0.4794    Z=             -1.2108  Tot=              3.9538
 Quadrupole moment (field-independent basis, Debye-Ang):
   XX=            -25.2162   YY=            -22.3502   ZZ=            -21.7785
   XY=              2.5580   XZ=             -1.5148   YZ=             -0.7909

 Normal termination of Gaussian 09 at Fri Apr 12 15:09:46 2019.
