 Gaussian 09, Revision D.01,
 Gaussian 09:  AS64L-G09RevD.01 24-Apr-2013

 --------------------------------------------------------------------
 #p hf 3-21g scf=tight NoSymmetry guess=read opt=(tight,modredundant)
 --------------------------------------------------------------------

 -----------------------------------
 Geometry optimization at the 2D-PES
 -----------------------------------
 Symbolic Z-matrix:
 Charge =  0 Multiplicity = 1

 SCF Done:  E(RHF) =  -226.392655772     A.U. after   13 cycles
 SCF Done:  E(RHF) =  -226.392664995     A.U. after   12 cycles
 SCF Done:  E(RHF) =  -226.392673636     A.U. after   10 cycles
 SCF Done:  E(RHF) =  -226.392673673     A.U. after    8 cycles
 SCF Done:  E(RHF) =  -226.392673679     A.U. after    8 cycles
 Optimization completed.
    -- Stationary point found.

                          Input orientation:
 ---------------------------------------------------------------------
 Center     Atomic      Atomic             Coordinates (Angstroms)
 Number     Number       Type             X           Y           Z
 ---------------------------------------------------------------------
      1          6           0        0.735642    0.638705    0.020496
      2          6           0        1.373351   -0.503732   -0.018814
      3          1           0        1.195701    1.601003    0.087997
      4          1           0        2.442363   -0.530205    0.029395
      5          1           0        0.845929   -1.433873   -0.080338
      6          8           0       -0.669706    0.672711    0.048815
      7          8           0       -1.092496    1.907806   -0.612126
      8          1           0       -1.020602    1.669948   -1.554685
 ---------------------------------------------------------------------

 Alpha  occ. eigenvalues --  -20.53835 -20.52930 -11.24651 -11.17545  -1.48057
 Alpha  occ. eigenvalues --   -1.23951  -1.03572  -0.80331  -0.72492  -0.65661
 Alpha  occ. eigenvalues --   -0.64667  -0.59486  -0.55329  -0.50747  -0.48136
 Alpha  occ. eigenvalues --   -0.37392
 Alpha virt. eigenvalues --    0.17023   0.24026   0.27347   0.31254   0.32977
 Alpha virt. eigenvalues --    0.35637   0.49115   0.56890   0.89386   0.96493
 Alpha virt. eigenvalues --    0.99233   1.05968   1.09997   1.10850   1.24588

 Mulliken charges:
               1
     1  C    0.124634
     2  C   -0.493273
     3  H    0.257094
     4  H    0.230085
     5  H    0.243696
     6  O   -0.391825
     7  O   -0.376854
     8  H    0.406442
 Sum of Mulliken charges =   0.00000

 Dipole moment (field-independent basis, Debye):
    X=              1.9689    Y=             -0.2994    Z=             -2.0496  Tot=              2.8578
 Quadrupole moment (field-independent basis, Debye-Ang):
   XX=            -23.4687   YY=            -23.6258   ZZ=            -21.1588
   XY=              2.0006   XZ=              2.3568   YZ=             -2.9214

 Normal termination of Gaussian 09 at Fri Apr 12 15:27:48 2019.
