 Gaussian 09, Revision D.01,
 Gaussian 09:  AS64L-G09RevD.01 24-Apr-2013

 --------------------------------------------------------------------
 #p hf 3-21g scf=tight NoSymmetry guess=read opt=(tight,modredundant)
 --------------------------------------------------------------------

 -----------------------------------
 Geometry optimization at the 2D-PES
 -----------------------------------
 Symbolic Z-matrix:
 Charge =  0 Multiplicity = 1

 SCF Done:  E(RHF) =  -226.385259026     A.U. after   12 cycles
 SCF Done:  E(RHF) =  -226.385286366     A.U. after   12 cycles
 SCF Done:  E(RHF) =  -226.385306228     A.U. after   12 cycles
 SCF Done:  E(RHF) =  -226.385306491     A.U. after   10 cycles
 SCF Done:  E(RHF) =  -226.385306557     A.U. after    9 cycles
 SCF Done:  E(RHF) =  -226.385306560     A.U. after    7 cycles
 Optimization completed.
    -- Stationary point found.

                          Input orientation:
 ---------------------------------------------------------------------
 Center     Atomic      Atomic             Coordinates (Angstroms)
 Number     Number       Type             X           Y           Z
 ---------------------------------------------------------------------
      1          6           0        0.749606    0.636863    0.016596
      2          6           0        1.380888   -0.509222   -0.013601
      3          1           0        1.226456    1.591634    0.107806
      4          1           0        2.449184   -0.543538    0.044310
      5          1           0        0.845519   -1.434239   -0.080699
      6          8           0       -0.653699    0.679501    0.043542
      7          8           0       -1.117702    1.904086   -0.620799
      8          1           0       -0.524401    1.995734   -1.389444
 ---------------------------------------------------------------------

 Alpha  occ. eigenvalues --  -20.53904 -20.52879 -11.25242 -11.18220  -1.47815
 Alpha  occ. eigenvalues --   -1.24177  -1.04171  -0.81357  -0.72353  -0.66420
 Alpha  occ. eigenvalues --   -0.63911  -0.59039  -0.55137  -0.52851  -0.47537
 Alpha  occ. eigenvalues --   -0.37570
 Alpha virt. eigenvalues --    0.15699   0.23941   0.26906   0.30846   0.32619
 Alpha virt. eigenvalues --    0.35317   0.49214   0.56333   0.88562   0.96364
 Alpha virt. eigenvalues --    0.98792   1.06294   1.09659   1.10529   1.24521

 Mulliken charges:
               1
     1  C    0.100364
     2  C   -0.482560
     3  H    0.248064
     4  H    0.232323
     5  H    0.250905
     6  O   -0.378989
     7  O   -0.370705
     8  H    0.400598
 Sum of Mulliken charges =   0.00000

 Dipole moment (field-independent basis, Debye):
    X=              3.0767    Y=              0.1948    Z=             -1.6166  Tot=              3.4811
 Quadrupole moment (field-independent basis, Debye-Ang):
   XX=            -24.9687   YY=            -21.1907   ZZ=            -22.3535
   XY=              3.3230   XZ=              0.4011   YZ=             -3.2454

 Normal termination of Gaussian 09 at Fri Apr 12 15:26:42 2019.
