 Gaussian 09, Revision D.01,
 Gaussian 09:  AS64L-G09RevD.01 24-Apr-2013

 --------------------------------------------------------------------
 #p hf 3-21g scf=tight NoSymmetry guess=read opt=(tight,modredundant)
 --------------------------------------------------------------------

 -----------------------------------
 Geometry optimization at the 2D-PES
 -----------------------------------
 Symbolic Z-matrix:
 Charge =  0 Multiplicity = 1

 SCF Done:  E(RHF) =  -226.397454921     A.U. after   12 cycles
 SCF Done:  E(RHF) =  -226.397461409     A.U. after   11 cycles
 SCF Done:  E(RHF) =  -226.397471521     A.U. after   11 cycles
 SCF Done:  E(RHF) =  -226.397471605     A.U. after    9 cycles
 SCF Done:  E(RHF) =  -226.397471610     A.U. after    7 cycles
 Optimization completed.
    -- Stationary point found.

                          Input orientation:
 ---------------------------------------------------------------------
 Center     Atomic      Atomic             Coordinates (Angstroms)
 Number     Number       Type             X           Y           Z
 ---------------------------------------------------------------------
      1          6           0        0.735423    0.573345    0.053143
      2          6           0        1.420784   -0.536597   -0.046452
      3          1           0        1.170563    1.550313    0.095772
      4          1           0        2.490176   -0.501230   -0.065900
      5          1           0        0.943628   -1.491560   -0.071156
      6          8           0       -0.654511    0.709298    0.051155
      7          8           0       -1.271892   -0.569988    0.394221
      8          1           0       -1.917397   -0.644295   -0.328954
 ---------------------------------------------------------------------

 Alpha  occ. eigenvalues --  -20.53874 -20.52909 -11.24296 -11.16066  -1.47985
 Alpha  occ. eigenvalues --   -1.24058  -1.03014  -0.79251  -0.70933  -0.68208
 Alpha  occ. eigenvalues --   -0.64780  -0.57858  -0.53572  -0.52247  -0.48313
 Alpha  occ. eigenvalues --   -0.35915
 Alpha virt. eigenvalues --    0.19009   0.23598   0.28886   0.30095   0.33621
 Alpha virt. eigenvalues --    0.37344   0.49896   0.58670   0.89106   0.97024
 Alpha virt. eigenvalues --    1.01665   1.07323   1.10470   1.12973   1.21997

 Mulliken charges:
               1
     1  C    0.151879
     2  C   -0.503522
     3  H    0.258027
     4  H    0.220826
     5  H    0.245951
     6  O   -0.414841
     7  O   -0.377741
     8  H    0.419420
 Sum of Mulliken charges =   0.00000

 Dipole moment (field-independent basis, Debye):
    X=              0.2216    Y=             -0.3705    Z=             -1.4389  Tot=              1.5022
 Quadrupole moment (field-independent basis, Debye-Ang):
   XX=            -18.6360   YY=            -22.1741   ZZ=            -25.7960
   XY=              2.8823   XZ=              2.6803   YZ=              1.2100

 Normal termination of Gaussian 09 at Fri Apr 12 17:35:58 2019.
