 Gaussian 09, Revision D.01,
 Gaussian 09:  AS64L-G09RevD.01 24-Apr-2013

 --------------------------------------------------------------------
 #p hf 3-21g scf=tight NoSymmetry guess=read opt=(tight,modredundant)
 --------------------------------------------------------------------

 -----------------------------------
 Geometry optimization at the 2D-PES
 -----------------------------------
 Symbolic Z-matrix:
 Charge =  0 Multiplicity = 1

 SCF Done:  E(RHF) =  -226.382138887     A.U. after   13 cycles
 SCF Done:  E(RHF) =  -226.382145349     A.U. after   12 cycles
 SCF Done:  E(RHF) =  -226.382152817     A.U. after   11 cycles
 SCF Done:  E(RHF) =  -226.382152869     A.U. after    9 cycles
 SCF Done:  E(RHF) =  -226.382152875     A.U. after    7 cycles
 Optimization completed.
    -- Stationary point found.

                          Input orientation:
 ---------------------------------------------------------------------
 Center     Atomic      Atomic             Coordinates (Angstroms)
 Number     Number       Type             X           Y           Z
 ---------------------------------------------------------------------
      1          6           0        0.750639    0.615445    0.038283
      2          6           0        1.396931   -0.521824   -0.014893
      3          1           0        1.224723    1.575324    0.078501
      4          1           0        2.467829   -0.545087   -0.013417
      5          1           0        0.868583   -1.452431   -0.065810
      6          8           0       -0.660648    0.679364    0.001749
      7          8           0       -1.216824    0.375934    1.336953
      8          1           0       -0.529016    0.685963    1.955128
 ---------------------------------------------------------------------

 Alpha  occ. eigenvalues --  -20.52648 -20.51864 -11.24744 -11.19337  -1.46269
 Alpha  occ. eigenvalues --   -1.23151  -1.04696  -0.81154  -0.70672  -0.68395
 Alpha  occ. eigenvalues --   -0.59492  -0.58983  -0.58291  -0.51353  -0.44310
 Alpha  occ. eigenvalues --   -0.39665
 Alpha virt. eigenvalues --    0.13596   0.27083   0.27596   0.29127   0.31027
 Alpha virt. eigenvalues --    0.36292   0.49481   0.55339   0.87194   0.96606
 Alpha virt. eigenvalues --    0.97727   1.05631   1.08886   1.10765   1.24541

 Mulliken charges:
               1
     1  C    0.061811
     2  C   -0.440643
     3  H    0.241333
     4  H    0.233259
     5  H    0.260977
     6  O   -0.379528
     7  O   -0.373813
     8  H    0.396606
 Sum of Mulliken charges =   0.00000

 Dipole moment (field-independent basis, Debye):
    X=              3.5145    Y=              0.1628    Z=              1.3941  Tot=              3.7844
 Quadrupole moment (field-independent basis, Debye-Ang):
   XX=            -25.1848   YY=            -21.5228   ZZ=            -21.2871
   XY=              1.1728   XZ=              1.1666   YZ=              2.0837

 Normal termination of Gaussian 09 at Fri Apr 12 16:48:31 2019.
