 Gaussian 09, Revision D.01,
 Gaussian 09:  AS64L-G09RevD.01 24-Apr-2013

 --------------------------------------------------------------------
 #p hf 3-21g scf=tight NoSymmetry guess=read opt=(tight,modredundant)
 --------------------------------------------------------------------

 -----------------------------------
 Geometry optimization at the 2D-PES
 -----------------------------------
 Symbolic Z-matrix:
 Charge =  0 Multiplicity = 1

 SCF Done:  E(RHF) =  -226.382865754     A.U. after   13 cycles
 SCF Done:  E(RHF) =  -226.382881783     A.U. after   13 cycles
 SCF Done:  E(RHF) =  -226.382890470     A.U. after   10 cycles
 SCF Done:  E(RHF) =  -226.382890644     A.U. after   10 cycles
 SCF Done:  E(RHF) =  -226.382890663     A.U. after    8 cycles
 SCF Done:  E(RHF) =  -226.382890663     A.U. after    6 cycles
 Optimization completed.
    -- Stationary point found.

                          Input orientation:
 ---------------------------------------------------------------------
 Center     Atomic      Atomic             Coordinates (Angstroms)
 Number     Number       Type             X           Y           Z
 ---------------------------------------------------------------------
      1          6           0        0.751799    0.635960    0.021436
      2          6           0        1.386235   -0.508525   -0.011002
      3          1           0        1.229130    1.592287    0.102690
      4          1           0        2.454465   -0.544311    0.052294
      5          1           0        0.848853   -1.432399   -0.078327
      6          8           0       -0.652809    0.672812    0.041725
      7          8           0       -1.142129    1.600384   -0.996945
      8          1           0       -0.396814    1.687255   -1.619828
 ---------------------------------------------------------------------

 Alpha  occ. eigenvalues --  -20.53465 -20.52311 -11.25220 -11.18990  -1.47050
 Alpha  occ. eigenvalues --   -1.23906  -1.04543  -0.81526  -0.72059  -0.67043
 Alpha  occ. eigenvalues --   -0.62107  -0.59386  -0.55665  -0.52968  -0.46001
 Alpha  occ. eigenvalues --   -0.38506
 Alpha virt. eigenvalues --    0.14505   0.25155   0.27340   0.30239   0.31839
 Alpha virt. eigenvalues --    0.35337   0.48932   0.55903   0.87926   0.96257
 Alpha virt. eigenvalues --    0.98366   1.06060   1.09236   1.10962   1.24280

 Mulliken charges:
               1
     1  C    0.079700
     2  C   -0.462793
     3  H    0.243677
     4  H    0.233664
     5  H    0.255810
     6  O   -0.375064
     7  O   -0.374535
     8  H    0.399542
 Sum of Mulliken charges =   0.00000

 Dipole moment (field-independent basis, Debye):
    X=              3.5071    Y=             -0.0314    Z=             -1.3225  Tot=              3.7483
 Quadrupole moment (field-independent basis, Debye-Ang):
   XX=            -25.1747   YY=            -21.4677   ZZ=            -22.1870
   XY=              3.3827   XZ=             -0.7118   YZ=             -2.2819

 Normal termination of Gaussian 09 at Fri Apr 12 15:18:26 2019.
