 Gaussian 09, Revision D.01,
 Gaussian 09:  AS64L-G09RevD.01 24-Apr-2013

 --------------------------------------------------------------------
 #p hf 3-21g scf=tight NoSymmetry guess=read opt=(tight,modredundant)
 --------------------------------------------------------------------

 -----------------------------------
 Geometry optimization at the 2D-PES
 -----------------------------------
 Symbolic Z-matrix:
 Charge =  0 Multiplicity = 1

 SCF Done:  E(RHF) =  -226.386597213     A.U. after   13 cycles
 SCF Done:  E(RHF) =  -226.386610733     A.U. after   12 cycles
 SCF Done:  E(RHF) =  -226.386621108     A.U. after   10 cycles
 SCF Done:  E(RHF) =  -226.386621185     A.U. after    9 cycles
 SCF Done:  E(RHF) =  -226.386621193     A.U. after    7 cycles
 SCF Done:  E(RHF) =  -226.386621194     A.U. after    7 cycles
 Optimization completed.
    -- Stationary point found.

                          Input orientation:
 ---------------------------------------------------------------------
 Center     Atomic      Atomic             Coordinates (Angstroms)
 Number     Number       Type             X           Y           Z
 ---------------------------------------------------------------------
      1          6           0        0.745892    0.625227    0.049596
      2          6           0        1.381676   -0.516215    0.000844
      3          1           0        1.230381    1.580901    0.099980
      4          1           0        2.451965   -0.550700   -0.012421
      5          1           0        0.841647   -1.439733   -0.043188
      6          8           0       -0.661307    0.679109   -0.016669
      7          8           0       -1.179180    1.080588    1.301259
      8          1           0       -0.773192    1.956196    1.443777
 ---------------------------------------------------------------------

 Alpha  occ. eigenvalues --  -20.53075 -20.52178 -11.24555 -11.18545  -1.46875
 Alpha  occ. eigenvalues --   -1.23392  -1.04014  -0.80995  -0.69831  -0.68936
 Alpha  occ. eigenvalues --   -0.62684  -0.57692  -0.57253  -0.49592  -0.46407
 Alpha  occ. eigenvalues --   -0.38820
 Alpha virt. eigenvalues --    0.14994   0.25577   0.27022   0.30510   0.32730
 Alpha virt. eigenvalues --    0.35445   0.49538   0.56045   0.88293   0.96406
 Alpha virt. eigenvalues --    0.98753   1.06020   1.09636   1.10706   1.25455

 Mulliken charges:
               1
     1  C    0.103509
     2  C   -0.449831
     3  H    0.222822
     4  H    0.229857
     5  H    0.256734
     6  O   -0.384900
     7  O   -0.374041
     8  H    0.395850
 Sum of Mulliken charges =   0.00000

 Dipole moment (field-independent basis, Debye):
    X=              2.8563    Y=              1.4026    Z=              0.4856  Tot=              3.2189
 Quadrupole moment (field-independent basis, Debye-Ang):
   XX=            -24.5028   YY=            -16.5481   ZZ=            -24.8961
   XY=              0.4248   XZ=              0.7400   YZ=              3.3270

 Normal termination of Gaussian 09 at Fri Apr 12 16:21:41 2019.
