 Gaussian 09, Revision D.01,
 Gaussian 09:  AS64L-G09RevD.01 24-Apr-2013

 --------------------------------------------------------------------
 #p hf 3-21g scf=tight NoSymmetry guess=read opt=(tight,modredundant)
 --------------------------------------------------------------------

 -----------------------------------
 Geometry optimization at the 2D-PES
 -----------------------------------
 Symbolic Z-matrix:
 Charge =  0 Multiplicity = 1

 SCF Done:  E(RHF) =  -226.393507429     A.U. after   13 cycles
 SCF Done:  E(RHF) =  -226.393516897     A.U. after   11 cycles
 SCF Done:  E(RHF) =  -226.393521888     A.U. after   10 cycles
 SCF Done:  E(RHF) =  -226.393521972     A.U. after    8 cycles
 SCF Done:  E(RHF) =  -226.393521983     A.U. after    6 cycles
 Optimization completed.
    -- Stationary point found.

                          Input orientation:
 ---------------------------------------------------------------------
 Center     Atomic      Atomic             Coordinates (Angstroms)
 Number     Number       Type             X           Y           Z
 ---------------------------------------------------------------------
      1          6           0        0.730463    0.629465    0.045456
      2          6           0        1.371016   -0.509635    0.002868
      3          1           0        1.199737    1.587573    0.126830
      4          1           0        2.441449   -0.538103    0.004031
      5          1           0        0.837316   -1.436346   -0.049754
      6          8           0       -0.675393    0.667749   -0.025730
      7          8           0       -1.143215    1.072810    1.310646
      8          1           0       -1.618954    1.892004    1.089362
 ---------------------------------------------------------------------

 Alpha  occ. eigenvalues --  -20.52699 -20.51866 -11.23824 -11.17601  -1.46608
 Alpha  occ. eigenvalues --   -1.23172  -1.03140  -0.79548  -0.69619  -0.67994
 Alpha  occ. eigenvalues --   -0.64804  -0.57108  -0.55316  -0.49979  -0.45930
 Alpha  occ. eigenvalues --   -0.38030
 Alpha virt. eigenvalues --    0.16027   0.26663   0.28433   0.31253   0.32426
 Alpha virt. eigenvalues --    0.35966   0.49150   0.56818   0.89038   0.97349
 Alpha virt. eigenvalues --    0.98930   1.07127   1.10449   1.12705   1.22908

 Mulliken charges:
               1
     1  C    0.139904
     2  C   -0.459279
     3  H    0.229301
     4  H    0.226555
     5  H    0.250065
     6  O   -0.408197
     7  O   -0.387428
     8  H    0.409079
 Sum of Mulliken charges =   0.00000

 Dipole moment (field-independent basis, Debye):
    X=              1.0083    Y=              1.5317    Z=             -0.1889  Tot=              1.8435
 Quadrupole moment (field-independent basis, Debye-Ang):
   XX=            -20.1487   YY=            -16.7439   ZZ=            -26.8345
   XY=             -3.0522   XZ=             -0.6546   YZ=              1.8028

 Normal termination of Gaussian 09 at Fri Apr 12 16:23:35 2019.
