 Gaussian 09, Revision D.01,
 Gaussian 09:  AS64L-G09RevD.01 24-Apr-2013

 --------------------------------------------------------------------
 #p hf 3-21g scf=tight NoSymmetry guess=read opt=(tight,modredundant)
 --------------------------------------------------------------------

 -----------------------------------
 Geometry optimization at the 2D-PES
 -----------------------------------
 Symbolic Z-matrix:
 Charge =  0 Multiplicity = 1

 SCF Done:  E(RHF) =  -226.381891019     A.U. after   14 cycles
 SCF Done:  E(RHF) =  -226.382020449     A.U. after   12 cycles
 SCF Done:  E(RHF) =  -226.382107501     A.U. after   12 cycles
 SCF Done:  E(RHF) =  -226.382109460     A.U. after    9 cycles
 SCF Done:  E(RHF) =  -226.382109969     A.U. after    9 cycles
 SCF Done:  E(RHF) =  -226.382109987     A.U. after    7 cycles
 SCF Done:  E(RHF) =  -226.382109988     A.U. after    6 cycles
 Optimization completed.
    -- Stationary point found.

                          Input orientation:
 ---------------------------------------------------------------------
 Center     Atomic      Atomic             Coordinates (Angstroms)
 Number     Number       Type             X           Y           Z
 ---------------------------------------------------------------------
      1          6           0        0.739292    0.590262    0.020921
      2          6           0        1.432666   -0.523964    0.010882
      3          1           0        1.179801    1.562852    0.086894
      4          1           0        2.501510   -0.490312    0.040451
      5          1           0        0.973278   -1.492954    0.005871
      6          8           0       -0.654700    0.688282   -0.010260
      7          8           0       -1.284572   -0.281967   -0.917305
      8          1           0       -0.537698   -0.782252   -1.294706
 ---------------------------------------------------------------------

 Alpha  occ. eigenvalues --  -20.53914 -20.52853 -11.26294 -11.18907  -1.47746
 Alpha  occ. eigenvalues --   -1.24384  -1.05487  -0.81331  -0.72999  -0.68095
 Alpha  occ. eigenvalues --   -0.62763  -0.59254  -0.55298  -0.54044  -0.47406
 Alpha  occ. eigenvalues --   -0.38029
 Alpha virt. eigenvalues --    0.15384   0.23203   0.27470   0.28665   0.32303
 Alpha virt. eigenvalues --    0.36658   0.49852   0.56851   0.87479   0.95573
 Alpha virt. eigenvalues --    1.00617   1.04895   1.07939   1.11241   1.23060

 Mulliken charges:
               1
     1  C    0.128285
     2  C   -0.524598
     3  H    0.267093
     4  H    0.240756
     5  H    0.233527
     6  O   -0.388164
     7  O   -0.364686
     8  H    0.407788
 Sum of Mulliken charges =   0.00000

 Dipole moment (field-independent basis, Debye):
    X=              3.3216    Y=             -1.0383    Z=             -0.8085  Tot=              3.5728
 Quadrupole moment (field-independent basis, Debye-Ang):
   XX=            -25.6955   YY=            -21.0374   ZZ=            -23.9266
   XY=              1.6766   XZ=             -0.7124   YZ=              1.7263

 Normal termination of Gaussian 09 at Fri Apr 12 14:53:31 2019.
