 Gaussian 09, Revision D.01,
 Gaussian 09:  AS64L-G09RevD.01 24-Apr-2013

 --------------------------------------------------------------------
 #p hf 3-21g scf=tight NoSymmetry guess=read opt=(tight,modredundant)
 --------------------------------------------------------------------

 -----------------------------------
 Geometry optimization at the 2D-PES
 -----------------------------------
 Symbolic Z-matrix:
 Charge =  0 Multiplicity = 1

 SCF Done:  E(RHF) =  -226.387954921     A.U. after   13 cycles
 SCF Done:  E(RHF) =  -226.387971982     A.U. after   13 cycles
 SCF Done:  E(RHF) =  -226.387986250     A.U. after   11 cycles
 SCF Done:  E(RHF) =  -226.387986357     A.U. after    9 cycles
 SCF Done:  E(RHF) =  -226.387986379     A.U. after    9 cycles
 SCF Done:  E(RHF) =  -226.387986380     A.U. after    7 cycles
 Optimization completed.
    -- Stationary point found.

                          Input orientation:
 ---------------------------------------------------------------------
 Center     Atomic      Atomic             Coordinates (Angstroms)
 Number     Number       Type             X           Y           Z
 ---------------------------------------------------------------------
      1          6           0        0.742697    0.638018    0.018564
      2          6           0        1.377673   -0.506090   -0.017403
      3          1           0        1.210748    1.597892    0.089526
      4          1           0        2.446474   -0.538325    0.034713
      5          1           0        0.843986   -1.432727   -0.077498
      6          8           0       -0.662456    0.672265    0.047530
      7          8           0       -1.114461    1.769452   -0.817943
      8          1           0       -0.626410    1.616941   -1.648888
 ---------------------------------------------------------------------

 Alpha  occ. eigenvalues --  -20.53735 -20.52690 -11.24990 -11.18403  -1.47692
 Alpha  occ. eigenvalues --   -1.23930  -1.04170  -0.80997  -0.72482  -0.66151
 Alpha  occ. eigenvalues --   -0.63771  -0.59394  -0.55442  -0.51975  -0.47063
 Alpha  occ. eigenvalues --   -0.38088
 Alpha virt. eigenvalues --    0.15549   0.24755   0.27312   0.30738   0.32124
 Alpha virt. eigenvalues --    0.35444   0.48868   0.56327   0.88567   0.96494
 Alpha virt. eigenvalues --    0.98482   1.06236   1.09505   1.10364   1.24816

 Mulliken charges:
               1
     1  C    0.097979
     2  C   -0.478048
     3  H    0.251535
     4  H    0.232549
     5  H    0.250132
     6  O   -0.380521
     7  O   -0.374448
     8  H    0.400823
 Sum of Mulliken charges =   0.00000

 Dipole moment (field-independent basis, Debye):
    X=              2.9054    Y=             -0.3324    Z=             -1.7700  Tot=              3.4183
 Quadrupole moment (field-independent basis, Debye-Ang):
   XX=            -24.7408   YY=            -23.0456   ZZ=            -21.2407
   XY=              3.0752   XZ=              0.5852   YZ=             -2.4394

 Normal termination of Gaussian 09 at Fri Apr 12 15:23:40 2019.
