 Gaussian 09, Revision D.01,
 Gaussian 09:  AS64L-G09RevD.01 24-Apr-2013

 --------------------------------------------------------------------
 #p hf 3-21g scf=tight NoSymmetry guess=read opt=(tight,modredundant)
 --------------------------------------------------------------------

 -----------------------------------
 Geometry optimization at the 2D-PES
 -----------------------------------
 Symbolic Z-matrix:
 Charge =  0 Multiplicity = 1

 SCF Done:  E(RHF) =  -226.379685547     A.U. after   13 cycles
 SCF Done:  E(RHF) =  -226.379688569     A.U. after   11 cycles
 SCF Done:  E(RHF) =  -226.379688987     A.U. after    9 cycles
 SCF Done:  E(RHF) =  -226.379689008     A.U. after    7 cycles
 SCF Done:  E(RHF) =  -226.379689010     A.U. after    7 cycles
 SCF Done:  E(RHF) =  -226.379689011     A.U. after    6 cycles
 Optimization completed.
    -- Stationary point found.

                          Input orientation:
 ---------------------------------------------------------------------
 Center     Atomic      Atomic             Coordinates (Angstroms)
 Number     Number       Type             X           Y           Z
 ---------------------------------------------------------------------
      1          6           0        0.769079    0.628526    0.065030
      2          6           0        1.384703   -0.524362    0.004078
      3          1           0        1.280697    1.572212    0.075915
      4          1           0        2.453459   -0.570395   -0.030294
      5          1           0        0.833704   -1.441778   -0.025670
      6          8           0       -0.627468    0.703496   -0.014871
      7          8           0       -1.160878    1.850134    0.736554
      8          1           0       -0.382414    2.382228    0.982743
 ---------------------------------------------------------------------

 Alpha  occ. eigenvalues --  -20.53963 -20.52876 -11.25752 -11.18203  -1.47618
 Alpha  occ. eigenvalues --   -1.24484  -1.04324  -0.82098  -0.71729  -0.67489
 Alpha  occ. eigenvalues --   -0.62933  -0.58996  -0.55808  -0.52711  -0.47994
 Alpha  occ. eigenvalues --   -0.37212
 Alpha virt. eigenvalues --    0.16146   0.23577   0.24340   0.30712   0.33932
 Alpha virt. eigenvalues --    0.35339   0.50733   0.56099   0.88570   0.95816
 Alpha virt. eigenvalues --    0.99272   1.05626   1.09695   1.11140   1.23258

 Mulliken charges:
               1
     1  C    0.112335
     2  C   -0.479054
     3  H    0.226605
     4  H    0.231813
     5  H    0.253903
     6  O   -0.378589
     7  O   -0.365566
     8  H    0.398553
 Sum of Mulliken charges =   0.00000

 Dipole moment (field-independent basis, Debye):
    X=              3.4217    Y=              0.9844    Z=              0.6345  Tot=              3.6166
 Quadrupole moment (field-independent basis, Debye-Ang):
   XX=            -25.2910   YY=            -17.2966   ZZ=            -24.8797
   XY=              3.6243   XZ=              0.8157   YZ=              2.3734

 Normal termination of Gaussian 09 at Fri Apr 12 15:54:55 2019.
