 Gaussian 09, Revision D.01,
 Gaussian 09:  AS64L-G09RevD.01 24-Apr-2013

 --------------------------------------------------------------------
 #p hf 3-21g scf=tight NoSymmetry guess=read opt=(tight,modredundant)
 --------------------------------------------------------------------

 -----------------------------------
 Geometry optimization at the 2D-PES
 -----------------------------------
 Symbolic Z-matrix:
 Charge =  0 Multiplicity = 1

 SCF Done:  E(RHF) =  -226.389428123     A.U. after   13 cycles
 SCF Done:  E(RHF) =  -226.389444804     A.U. after   11 cycles
 SCF Done:  E(RHF) =  -226.389456975     A.U. after   10 cycles
 SCF Done:  E(RHF) =  -226.389457070     A.U. after    9 cycles
 SCF Done:  E(RHF) =  -226.389457081     A.U. after    8 cycles
 SCF Done:  E(RHF) =  -226.389457082     A.U. after    6 cycles
 Optimization completed.
    -- Stationary point found.

                          Input orientation:
 ---------------------------------------------------------------------
 Center     Atomic      Atomic             Coordinates (Angstroms)
 Number     Number       Type             X           Y           Z
 ---------------------------------------------------------------------
      1          6           0        0.739958    0.587630    0.065259
      2          6           0        1.417252   -0.528161   -0.029635
      3          1           0        1.195163    1.555396    0.092054
      4          1           0        2.487070   -0.507015   -0.049918
      5          1           0        0.947655   -1.490366   -0.054090
      6          8           0       -0.661496    0.699951    0.039202
      7          8           0       -1.269721   -0.238143    0.983319
      8          1           0       -1.393263   -1.028242    0.428975
 ---------------------------------------------------------------------

 Alpha  occ. eigenvalues --  -20.53394 -20.52781 -11.24747 -11.17882  -1.47549
 Alpha  occ. eigenvalues --   -1.23729  -1.04140  -0.79890  -0.71451  -0.67836
 Alpha  occ. eigenvalues --   -0.65641  -0.57660  -0.54964  -0.50318  -0.48338
 Alpha  occ. eigenvalues --   -0.37662
 Alpha virt. eigenvalues --    0.15969   0.23417   0.28619   0.29205   0.33641
 Alpha virt. eigenvalues --    0.36883   0.50024   0.57136   0.88271   0.96467
 Alpha virt. eigenvalues --    0.98254   1.06221   1.09378   1.11576   1.25145

 Mulliken charges:
               1
     1  C    0.144059
     2  C   -0.484387
     3  H    0.256343
     4  H    0.233464
     5  H    0.216379
     6  O   -0.404845
     7  O   -0.369108
     8  H    0.408094
 Sum of Mulliken charges =   0.00000

 Dipole moment (field-independent basis, Debye):
    X=              1.5736    Y=             -1.7871    Z=             -0.8940  Tot=              2.5435
 Quadrupole moment (field-independent basis, Debye-Ang):
   XX=            -22.1903   YY=            -20.1123   ZZ=            -27.3080
   XY=              4.0489   XZ=              1.3446   YZ=             -0.0824

 Normal termination of Gaussian 09 at Fri Apr 12 17:12:50 2019.
