 Gaussian 09, Revision D.01,
 Gaussian 09:  AS64L-G09RevD.01 24-Apr-2013

 --------------------------------------------------------------------
 #p hf 3-21g scf=tight NoSymmetry guess=read opt=(tight,modredundant)
 --------------------------------------------------------------------

 -----------------------------------
 Geometry optimization at the 2D-PES
 -----------------------------------
 Symbolic Z-matrix:
 Charge =  0 Multiplicity = 1

 SCF Done:  E(RHF) =  -226.382931585     A.U. after   13 cycles
 SCF Done:  E(RHF) =  -226.382940881     A.U. after   12 cycles
 SCF Done:  E(RHF) =  -226.382948866     A.U. after   10 cycles
 SCF Done:  E(RHF) =  -226.382949012     A.U. after    9 cycles
 SCF Done:  E(RHF) =  -226.382949018     A.U. after    8 cycles
 SCF Done:  E(RHF) =  -226.382949020     A.U. after    7 cycles
 Optimization completed.
    -- Stationary point found.

                          Input orientation:
 ---------------------------------------------------------------------
 Center     Atomic      Atomic             Coordinates (Angstroms)
 Number     Number       Type             X           Y           Z
 ---------------------------------------------------------------------
      1          6           0        0.735228    0.624076    0.036774
      2          6           0        1.391458   -0.510290   -0.006956
      3          1           0        1.201504    1.586217    0.074436
      4          1           0        2.462059   -0.524025    0.005883
      5          1           0        0.877224   -1.451440   -0.023209
      6          8           0       -0.675226    0.662534    0.030556
      7          8           0       -1.174724    0.492150   -1.349982
      8          1           0       -0.491275   -0.062014   -1.771442
 ---------------------------------------------------------------------

 Alpha  occ. eigenvalues --  -20.52854 -20.52047 -11.25401 -11.19699  -1.46595
 Alpha  occ. eigenvalues --   -1.23389  -1.05236  -0.81011  -0.72518  -0.67015
 Alpha  occ. eigenvalues --   -0.61733  -0.59591  -0.56279  -0.52295  -0.44688
 Alpha  occ. eigenvalues --   -0.39937
 Alpha virt. eigenvalues --    0.13788   0.25194   0.27718   0.29945   0.30290
 Alpha virt. eigenvalues --    0.36266   0.49418   0.54807   0.87460   0.96085
 Alpha virt. eigenvalues --    0.98751   1.04609   1.08159   1.10891   1.23278

 Mulliken charges:
               1
     1  C    0.090779
     2  C   -0.471337
     3  H    0.250342
     4  H    0.238857
     5  H    0.248920
     6  O   -0.383402
     7  O   -0.371764
     8  H    0.397605
 Sum of Mulliken charges =   0.00000

 Dipole moment (field-independent basis, Debye):
    X=              3.4728    Y=             -1.3138    Z=             -0.9506  Tot=              3.8328
 Quadrupole moment (field-independent basis, Debye-Ang):
   XX=            -25.1265   YY=            -22.5116   ZZ=            -22.8421
   XY=              2.3578   XZ=             -1.2276   YZ=              1.6853

 Normal termination of Gaussian 09 at Fri Apr 12 15:03:01 2019.
