 Gaussian 09, Revision D.01,
 Gaussian 09:  AS64L-G09RevD.01 24-Apr-2013

 --------------------------------------------------------------------
 #p hf 3-21g scf=tight NoSymmetry guess=read opt=(tight,modredundant)
 --------------------------------------------------------------------

 -----------------------------------
 Geometry optimization at the 2D-PES
 -----------------------------------
 Symbolic Z-matrix:
 Charge =  0 Multiplicity = 1

 SCF Done:  E(RHF) =  -226.389792514     A.U. after   13 cycles
 SCF Done:  E(RHF) =  -226.389802004     A.U. after   13 cycles
 SCF Done:  E(RHF) =  -226.389810782     A.U. after   10 cycles
 SCF Done:  E(RHF) =  -226.389810855     A.U. after    9 cycles
 SCF Done:  E(RHF) =  -226.389810867     A.U. after    8 cycles
 SCF Done:  E(RHF) =  -226.389810868     A.U. after    7 cycles
 Optimization completed.
    -- Stationary point found.

                          Input orientation:
 ---------------------------------------------------------------------
 Center     Atomic      Atomic             Coordinates (Angstroms)
 Number     Number       Type             X           Y           Z
 ---------------------------------------------------------------------
      1          6           0        0.732066    0.636621    0.027096
      2          6           0        1.374855   -0.503225   -0.020924
      3          1           0        1.192937    1.600723    0.066294
      4          1           0        2.444751   -0.530209    0.012914
      5          1           0        0.845685   -1.433869   -0.063091
      6          8           0       -0.676639    0.658878    0.048964
      7          8           0       -1.116191    1.409093   -1.137459
      8          1           0       -0.742764    0.883755   -1.870104
 ---------------------------------------------------------------------

 Alpha  occ. eigenvalues --  -20.53365 -20.52351 -11.24801 -11.18790  -1.47333
 Alpha  occ. eigenvalues --   -1.23543  -1.04323  -0.80627  -0.72531  -0.65877
 Alpha  occ. eigenvalues --   -0.63365  -0.59990  -0.55949  -0.50614  -0.46231
 Alpha  occ. eigenvalues --   -0.39094
 Alpha virt. eigenvalues --    0.15257   0.25806   0.27250   0.30468   0.31589
 Alpha virt. eigenvalues --    0.35649   0.48656   0.55956   0.88380   0.96542
 Alpha virt. eigenvalues --    0.98145   1.05948   1.09229   1.10476   1.24355

 Mulliken charges:
               1
     1  C    0.099101
     2  C   -0.469867
     3  H    0.250525
     4  H    0.233460
     5  H    0.248244
     6  O   -0.383507
     7  O   -0.378086
     8  H    0.400131
 Sum of Mulliken charges =   0.00000

 Dipole moment (field-independent basis, Debye):
    X=              2.7538    Y=             -1.1474    Z=             -1.5975  Tot=              3.3841
 Quadrupole moment (field-independent basis, Debye-Ang):
   XX=            -24.4331   YY=            -24.4610   ZZ=            -20.9369
   XY=              3.0001   XZ=              0.5516   YZ=              0.0520

 Normal termination of Gaussian 09 at Fri Apr 12 15:15:39 2019.
