 Gaussian 09, Revision D.01,
 Gaussian 09:  AS64L-G09RevD.01 24-Apr-2013

 --------------------------------------------------------------------
 #p hf 3-21g scf=tight NoSymmetry guess=read opt=(tight,modredundant)
 --------------------------------------------------------------------

 -----------------------------------
 Geometry optimization at the 2D-PES
 -----------------------------------
 Symbolic Z-matrix:
 Charge =  0 Multiplicity = 1

 SCF Done:  E(RHF) =  -226.381665556     A.U. after   13 cycles
 SCF Done:  E(RHF) =  -226.381673710     A.U. after   12 cycles
 SCF Done:  E(RHF) =  -226.381677174     A.U. after   10 cycles
 SCF Done:  E(RHF) =  -226.381677270     A.U. after    9 cycles
 SCF Done:  E(RHF) =  -226.381677281     A.U. after    7 cycles
 Optimization completed.
    -- Stationary point found.

                          Input orientation:
 ---------------------------------------------------------------------
 Center     Atomic      Atomic             Coordinates (Angstroms)
 Number     Number       Type             X           Y           Z
 ---------------------------------------------------------------------
      1          6           0        0.755172    0.635006    0.020655
      2          6           0        1.388363   -0.510044   -0.009279
      3          1           0        1.236668    1.589372    0.107933
      4          1           0        2.456183   -0.547455    0.059676
      5          1           0        0.849731   -1.432760   -0.081130
      6          8           0       -0.648786    0.675932    0.040040
      7          8           0       -1.148130    1.600769   -0.997489
      8          1           0       -0.365573    1.820664   -1.535855
 ---------------------------------------------------------------------

 Alpha  occ. eigenvalues --  -20.53456 -20.52293 -11.25284 -11.18983  -1.46971
 Alpha  occ. eigenvalues --   -1.23956  -1.04551  -0.81667  -0.71873  -0.67303
 Alpha  occ. eigenvalues --   -0.61750  -0.59407  -0.55806  -0.53022  -0.46015
 Alpha  occ. eigenvalues --   -0.38414
 Alpha virt. eigenvalues --    0.14458   0.25079   0.27058   0.30209   0.32110
 Alpha virt. eigenvalues --    0.35278   0.49126   0.55847   0.87879   0.96120
 Alpha virt. eigenvalues --    0.98567   1.06082   1.09279   1.11044   1.24106

 Mulliken charges:
               1
     1  C    0.080384
     2  C   -0.461506
     3  H    0.240094
     4  H    0.233453
     5  H    0.256682
     6  O   -0.374620
     7  O   -0.373754
     8  H    0.399267
 Sum of Mulliken charges =   0.00000

 Dipole moment (field-independent basis, Debye):
    X=              3.5826    Y=              0.2113    Z=             -1.1519  Tot=              3.7691
 Quadrupole moment (field-independent basis, Debye-Ang):
   XX=            -25.2264   YY=            -20.5075   ZZ=            -22.7704
   XY=              3.3997   XZ=             -0.8807   YZ=             -2.4256

 Normal termination of Gaussian 09 at Fri Apr 12 15:17:55 2019.
