 Gaussian 09, Revision D.01,
 Gaussian 09:  AS64L-G09RevD.01 24-Apr-2013

 --------------------------------------------------------------------
 #p hf 3-21g scf=tight NoSymmetry guess=read opt=(tight,modredundant)
 --------------------------------------------------------------------

 -----------------------------------
 Geometry optimization at the 2D-PES
 -----------------------------------
 Symbolic Z-matrix:
 Charge =  0 Multiplicity = 1

 SCF Done:  E(RHF) =  -226.392115397     A.U. after   13 cycles
 SCF Done:  E(RHF) =  -226.392126223     A.U. after   11 cycles
 SCF Done:  E(RHF) =  -226.392136344     A.U. after   10 cycles
 SCF Done:  E(RHF) =  -226.392136394     A.U. after    8 cycles
 SCF Done:  E(RHF) =  -226.392136399     A.U. after    8 cycles
 Optimization completed.
    -- Stationary point found.

                          Input orientation:
 ---------------------------------------------------------------------
 Center     Atomic      Atomic             Coordinates (Angstroms)
 Number     Number       Type             X           Y           Z
 ---------------------------------------------------------------------
      1          6           0        0.741411    0.636657    0.050937
      2          6           0        1.373325   -0.507773   -0.004446
      3          1           0        1.216142    1.592524    0.112433
      4          1           0        2.443045   -0.535682   -0.021594
      5          1           0        0.840665   -1.435953   -0.039210
      6          8           0       -0.661702    0.684366    0.002322
      7          8           0       -1.094731    1.967642    0.550735
      8          1           0       -1.109028    2.525548   -0.247713
 ---------------------------------------------------------------------

 Alpha  occ. eigenvalues --  -20.53920 -20.53168 -11.24717 -11.16923  -1.48232
 Alpha  occ. eigenvalues --   -1.24123  -1.03242  -0.80374  -0.71208  -0.67902
 Alpha  occ. eigenvalues --   -0.65301  -0.56414  -0.54656  -0.52988  -0.48624
 Alpha  occ. eigenvalues --   -0.36523
 Alpha virt. eigenvalues --    0.18506   0.22615   0.26640   0.31730   0.33602
 Alpha virt. eigenvalues --    0.35538   0.49518   0.57203   0.89675   0.96730
 Alpha virt. eigenvalues --    0.99486   1.06328   1.10391   1.11417   1.24233

 Mulliken charges:
               1
     1  C    0.148445
     2  C   -0.499636
     3  H    0.243771
     4  H    0.227485
     5  H    0.244595
     6  O   -0.399463
     7  O   -0.372760
     8  H    0.407563
 Sum of Mulliken charges =   0.00000

 Dipole moment (field-independent basis, Debye):
    X=              1.7264    Y=              1.4224    Z=             -1.5154  Tot=              2.7019
 Quadrupole moment (field-independent basis, Debye-Ang):
   XX=            -23.1031   YY=            -16.3085   ZZ=            -26.1821
   XY=             -0.2475   XZ=              1.8663   YZ=             -3.4580

 Normal termination of Gaussian 09 at Fri Apr 12 15:51:45 2019.
