 Gaussian 09, Revision D.01,
 Gaussian 09:  AS64L-G09RevD.01 24-Apr-2013

 --------------------------------------------------------------------
 #p hf 3-21g scf=tight NoSymmetry guess=read opt=(tight,modredundant)
 --------------------------------------------------------------------

 -----------------------------------
 Geometry optimization at the 2D-PES
 -----------------------------------
 Symbolic Z-matrix:
 Charge =  0 Multiplicity = 1

 SCF Done:  E(RHF) =  -226.381395996     A.U. after   13 cycles
 SCF Done:  E(RHF) =  -226.381402993     A.U. after   12 cycles
 SCF Done:  E(RHF) =  -226.381405590     A.U. after   11 cycles
 SCF Done:  E(RHF) =  -226.381405670     A.U. after    8 cycles
 SCF Done:  E(RHF) =  -226.381405685     A.U. after    7 cycles
 SCF Done:  E(RHF) =  -226.381405685     A.U. after    6 cycles
 Optimization completed.
    -- Stationary point found.

                          Input orientation:
 ---------------------------------------------------------------------
 Center     Atomic      Atomic             Coordinates (Angstroms)
 Number     Number       Type             X           Y           Z
 ---------------------------------------------------------------------
      1          6           0        0.740484    0.612616    0.025433
      2          6           0        1.409233   -0.515706    0.003649
      3          1           0        1.197448    1.578074    0.087812
      4          1           0        2.479418   -0.514268    0.027573
      5          1           0        0.909493   -1.464252   -0.021098
      6          8           0       -0.664203    0.681202    0.009358
      7          8           0       -1.224981    0.053959   -1.204656
      8          1           0       -0.439504   -0.254844   -1.694574
 ---------------------------------------------------------------------

 Alpha  occ. eigenvalues --  -20.53086 -20.52277 -11.25716 -11.19425  -1.46812
 Alpha  occ. eigenvalues --   -1.23686  -1.05352  -0.81210  -0.72258  -0.67879
 Alpha  occ. eigenvalues --   -0.60967  -0.59768  -0.56151  -0.53255  -0.45623
 Alpha  occ. eigenvalues --   -0.38932
 Alpha virt. eigenvalues --    0.14099   0.24996   0.27687   0.29112   0.30475
 Alpha virt. eigenvalues --    0.36609   0.49937   0.55162   0.87309   0.96083
 Alpha virt. eigenvalues --    0.99169   1.04394   1.08040   1.11054   1.23069

 Mulliken charges:
               1
     1  C    0.093530
     2  C   -0.486344
     3  H    0.256640
     4  H    0.238617
     5  H    0.250112
     6  O   -0.384352
     7  O   -0.368694
     8  H    0.400492
 Sum of Mulliken charges =   0.00000

 Dipole moment (field-independent basis, Debye):
    X=              3.5949    Y=             -0.8280    Z=             -1.0729  Tot=              3.8418
 Quadrupole moment (field-independent basis, Debye-Ang):
   XX=            -25.4764   YY=            -22.0053   ZZ=            -22.5929
   XY=              1.6241   XZ=             -1.2414   YZ=              1.1421

 Normal termination of Gaussian 09 at Fri Apr 12 14:59:18 2019.
