 Gaussian 09, Revision D.01,
 Gaussian 09:  AS64L-G09RevD.01 24-Apr-2013

 --------------------------------------------------------------------
 #p hf 3-21g scf=tight NoSymmetry guess=read opt=(tight,modredundant)
 --------------------------------------------------------------------

 -----------------------------------
 Geometry optimization at the 2D-PES
 -----------------------------------
 Symbolic Z-matrix:
 Charge =  0 Multiplicity = 1

 SCF Done:  E(RHF) =  -226.380902377     A.U. after   13 cycles
 SCF Done:  E(RHF) =  -226.380906141     A.U. after   10 cycles
 SCF Done:  E(RHF) =  -226.380906933     A.U. after   10 cycles
 SCF Done:  E(RHF) =  -226.380906963     A.U. after    9 cycles
 SCF Done:  E(RHF) =  -226.380906966     A.U. after    6 cycles
 Optimization completed.
    -- Stationary point found.

                          Input orientation:
 ---------------------------------------------------------------------
 Center     Atomic      Atomic             Coordinates (Angstroms)
 Number     Number       Type             X           Y           Z
 ---------------------------------------------------------------------
      1          6           0        0.752741    0.618973    0.036213
      2          6           0        1.392298   -0.523046   -0.009684
      3          1           0        1.232609    1.575844    0.080575
      4          1           0        2.463030   -0.553070   -0.009428
      5          1           0        0.857881   -1.450012   -0.064708
      6          8           0       -0.657069    0.675759   -0.005335
      7          8           0       -1.211371    0.615827    1.367166
      8          1           0       -0.433779    0.715955    1.947349
 ---------------------------------------------------------------------

 Alpha  occ. eigenvalues --  -20.52669 -20.51772 -11.24970 -11.19653  -1.46148
 Alpha  occ. eigenvalues --   -1.23278  -1.04909  -0.81323  -0.71312  -0.67932
 Alpha  occ. eigenvalues --   -0.59753  -0.58976  -0.57639  -0.52307  -0.43833
 Alpha  occ. eigenvalues --   -0.40016
 Alpha virt. eigenvalues --    0.13407   0.26890   0.27499   0.29191   0.30814
 Alpha virt. eigenvalues --    0.36084   0.49242   0.55163   0.87199   0.96620
 Alpha virt. eigenvalues --    0.97467   1.05203   1.08605   1.11118   1.24214

 Mulliken charges:
               1
     1  C    0.058016
     2  C   -0.440757
     3  H    0.241963
     4  H    0.234840
     5  H    0.260613
     6  O   -0.377054
     7  O   -0.374929
     8  H    0.397307
 Sum of Mulliken charges =   0.00000

 Dipole moment (field-independent basis, Debye):
    X=              3.7114    Y=             -0.2384    Z=              1.2959  Tot=              3.9384
 Quadrupole moment (field-independent basis, Debye-Ang):
   XX=            -25.2972   YY=            -21.9025   ZZ=            -21.5343
   XY=              1.8411   XZ=              1.6133   YZ=              1.4552

 Normal termination of Gaussian 09 at Fri Apr 12 16:35:14 2019.
