 Gaussian 09, Revision D.01,
 Gaussian 09:  AS64L-G09RevD.01 24-Apr-2013

 --------------------------------------------------------------------
 #p hf 3-21g scf=tight NoSymmetry guess=read opt=(tight,modredundant)
 --------------------------------------------------------------------

 -----------------------------------
 Geometry optimization at the 2D-PES
 -----------------------------------
 Symbolic Z-matrix:
 Charge =  0 Multiplicity = 1

 SCF Done:  E(RHF) =  -226.390166547     A.U. after   13 cycles
 SCF Done:  E(RHF) =  -226.390172630     A.U. after   11 cycles
 SCF Done:  E(RHF) =  -226.390178759     A.U. after   10 cycles
 SCF Done:  E(RHF) =  -226.390178793     A.U. after    8 cycles
 SCF Done:  E(RHF) =  -226.390178800     A.U. after    7 cycles
 SCF Done:  E(RHF) =  -226.390178801     A.U. after    6 cycles
 Optimization completed.
    -- Stationary point found.

                          Input orientation:
 ---------------------------------------------------------------------
 Center     Atomic      Atomic             Coordinates (Angstroms)
 Number     Number       Type             X           Y           Z
 ---------------------------------------------------------------------
      1          6           0        0.721775    0.625791    0.031391
      2          6           0        1.375991   -0.506891   -0.018681
      3          1           0        1.185582    1.588607    0.055929
      4          1           0        2.446612   -0.521943   -0.007979
      5          1           0        0.863988   -1.448552   -0.042867
      6          8           0       -0.691069    0.662188    0.041350
      7          8           0       -1.133651    0.730618   -1.360561
      8          1           0       -1.214837   -0.214907   -1.577720
 ---------------------------------------------------------------------

 Alpha  occ. eigenvalues --  -20.52782 -20.52076 -11.24450 -11.18628  -1.46798
 Alpha  occ. eigenvalues --   -1.23129  -1.04154  -0.79920  -0.71837  -0.65654
 Alpha  occ. eigenvalues --   -0.64796  -0.59454  -0.56039  -0.47935  -0.46865
 Alpha  occ. eigenvalues --   -0.39323
 Alpha virt. eigenvalues --    0.14971   0.25048   0.28525   0.30726   0.31697
 Alpha virt. eigenvalues --    0.36107   0.49222   0.55955   0.88187   0.96505
 Alpha virt. eigenvalues --    0.97740   1.06216   1.09156   1.11491   1.24950

 Mulliken charges:
               1
     1  C    0.128911
     2  C   -0.467244
     3  H    0.246076
     4  H    0.234011
     5  H    0.233194
     6  O   -0.399503
     7  O   -0.378890
     8  H    0.403445
 Sum of Mulliken charges =   0.00000

 Dipole moment (field-independent basis, Debye):
    X=              1.8858    Y=             -2.0538    Z=             -0.6567  Tot=              2.8645
 Quadrupole moment (field-independent basis, Debye-Ang):
   XX=            -22.5668   YY=            -22.9440   ZZ=            -24.2893
   XY=              3.5964   XZ=              1.0762   YZ=              2.8769

 Normal termination of Gaussian 09 at Fri Apr 12 15:06:50 2019.
