 Gaussian 09, Revision D.01,
 Gaussian 09:  AS64L-G09RevD.01 24-Apr-2013

 --------------------------------------------------------------------
 #p hf 3-21g scf=tight NoSymmetry guess=read opt=(tight,modredundant)
 --------------------------------------------------------------------

 -----------------------------------
 Geometry optimization at the 2D-PES
 -----------------------------------
 Symbolic Z-matrix:
 Charge =  0 Multiplicity = 1

 SCF Done:  E(RHF) =  -226.383483565     A.U. after   13 cycles
 SCF Done:  E(RHF) =  -226.383498973     A.U. after   12 cycles
 SCF Done:  E(RHF) =  -226.383510614     A.U. after   11 cycles
 SCF Done:  E(RHF) =  -226.383510865     A.U. after   10 cycles
 SCF Done:  E(RHF) =  -226.383510907     A.U. after    9 cycles
 SCF Done:  E(RHF) =  -226.383510909     A.U. after    6 cycles
 Optimization completed.
    -- Stationary point found.

                          Input orientation:
 ---------------------------------------------------------------------
 Center     Atomic      Atomic             Coordinates (Angstroms)
 Number     Number       Type             X           Y           Z
 ---------------------------------------------------------------------
      1          6           0        0.749659    0.597573    0.042962
      2          6           0        1.416787   -0.529284   -0.027225
      3          1           0        1.204747    1.565589    0.068058
      4          1           0        2.487070   -0.527037   -0.028098
      5          1           0        0.915185   -1.474347   -0.090211
      6          8           0       -0.651815    0.689613    0.030372
      7          8           0       -1.261353   -0.225740    1.010440
      8          1           0       -0.533186   -0.417518    1.631983
 ---------------------------------------------------------------------

 Alpha  occ. eigenvalues --  -20.53402 -20.52518 -11.25633 -11.18973  -1.47227
 Alpha  occ. eigenvalues --   -1.23802  -1.05143  -0.81191  -0.71847  -0.68275
 Alpha  occ. eigenvalues --   -0.61842  -0.58820  -0.56623  -0.52874  -0.46356
 Alpha  occ. eigenvalues --   -0.38418
 Alpha virt. eigenvalues --    0.14767   0.24914   0.27769   0.28789   0.30836
 Alpha virt. eigenvalues --    0.36703   0.49865   0.55737   0.87370   0.96389
 Alpha virt. eigenvalues --    0.99074   1.04636   1.08255   1.10942   1.23359

 Mulliken charges:
               1
     1  C    0.094272
     2  C   -0.491181
     3  H    0.259296
     4  H    0.236289
     5  H    0.251780
     6  O   -0.383593
     7  O   -0.368028
     8  H    0.401165
 Sum of Mulliken charges =   0.00000

 Dipole moment (field-independent basis, Debye):
    X=              3.3993    Y=             -0.6089    Z=              1.3597  Tot=              3.7114
 Quadrupole moment (field-independent basis, Debye-Ang):
   XX=            -25.5130   YY=            -21.9520   ZZ=            -22.1290
   XY=              1.2200   XZ=              0.7454   YZ=             -0.7376

 Normal termination of Gaussian 09 at Fri Apr 12 17:06:03 2019.
