 Gaussian 09, Revision D.01,
 Gaussian 09:  AS64L-G09RevD.01 24-Apr-2013

 --------------------------------------------------------------------
 #p hf 3-21g scf=tight NoSymmetry guess=read opt=(tight,modredundant)
 --------------------------------------------------------------------

 -----------------------------------
 Geometry optimization at the 2D-PES
 -----------------------------------
 Symbolic Z-matrix:
 Charge =  0 Multiplicity = 1

 SCF Done:  E(RHF) =  -226.390611004     A.U. after   12 cycles
 SCF Done:  E(RHF) =  -226.390626666     A.U. after   12 cycles
 SCF Done:  E(RHF) =  -226.390643115     A.U. after   11 cycles
 SCF Done:  E(RHF) =  -226.390643213     A.U. after    9 cycles
 SCF Done:  E(RHF) =  -226.390643227     A.U. after    8 cycles
 SCF Done:  E(RHF) =  -226.390643228     A.U. after    6 cycles
 Optimization completed.
    -- Stationary point found.

                          Input orientation:
 ---------------------------------------------------------------------
 Center     Atomic      Atomic             Coordinates (Angstroms)
 Number     Number       Type             X           Y           Z
 ---------------------------------------------------------------------
      1          6           0        0.743282    0.636166    0.041821
      2          6           0        1.374361   -0.509169   -0.005839
      3          1           0        1.219510    1.590697    0.113643
      4          1           0        2.444178   -0.537283   -0.004329
      5          1           0        0.842616   -1.437573   -0.048996
      6          8           0       -0.660773    0.685919    0.006829
      7          8           0       -1.089122    2.047698    0.312745
      8          1           0       -0.960317    2.498394   -0.541838
 ---------------------------------------------------------------------

 Alpha  occ. eigenvalues --  -20.54048 -20.53361 -11.24896 -11.16961  -1.48405
 Alpha  occ. eigenvalues --   -1.24221  -1.03376  -0.80606  -0.71705  -0.67329
 Alpha  occ. eigenvalues --   -0.65383  -0.56806  -0.54581  -0.53320  -0.48757
 Alpha  occ. eigenvalues --   -0.36490
 Alpha virt. eigenvalues --    0.18675   0.21994   0.26393   0.31661   0.33670
 Alpha virt. eigenvalues --    0.35496   0.49615   0.57122   0.89540   0.96621
 Alpha virt. eigenvalues --    0.99360   1.06203   1.10243   1.11144   1.24629

 Mulliken charges:
               1
     1  C    0.141555
     2  C   -0.502050
     3  H    0.246768
     4  H    0.228144
     5  H    0.244488
     6  O   -0.395495
     7  O   -0.369296
     8  H    0.405887
 Sum of Mulliken charges =   0.00000

 Dipole moment (field-independent basis, Debye):
    X=              2.0045    Y=              1.2305    Z=             -1.6660  Tot=              2.8823
 Quadrupole moment (field-independent basis, Debye-Ang):
   XX=            -23.7287   YY=            -17.2885   ZZ=            -25.2336
   XY=              0.7977   XZ=              1.9010   YZ=             -4.0798

 Normal termination of Gaussian 09 at Fri Apr 12 15:45:33 2019.
