 Gaussian 09, Revision D.01,
 Gaussian 09:  AS64L-G09RevD.01 24-Apr-2013

 --------------------------------------------------------------------
 #p hf 3-21g scf=tight NoSymmetry guess=read opt=(tight,modredundant)
 --------------------------------------------------------------------

 -----------------------------------
 Geometry optimization at the 2D-PES
 -----------------------------------
 Symbolic Z-matrix:
 Charge =  0 Multiplicity = 1

 SCF Done:  E(RHF) =  -226.395859470     A.U. after   13 cycles
 SCF Done:  E(RHF) =  -226.395860262     A.U. after   11 cycles
 SCF Done:  E(RHF) =  -226.395861200     A.U. after   10 cycles
 SCF Done:  E(RHF) =  -226.395861212     A.U. after    7 cycles
 SCF Done:  E(RHF) =  -226.395861213     A.U. after    6 cycles
 Optimization completed.
    -- Stationary point found.

                          Input orientation:
 ---------------------------------------------------------------------
 Center     Atomic      Atomic             Coordinates (Angstroms)
 Number     Number       Type             X           Y           Z
 ---------------------------------------------------------------------
      1          6           0        0.718596    0.634369    0.031400
      2          6           0        1.366760   -0.502656   -0.013395
      3          1           0        1.172568    1.599373    0.088260
      4          1           0        2.436381   -0.513509    0.015348
      5          1           0        0.852865   -1.440181   -0.073529
      6          8           0       -0.678750    0.667449    0.036622
      7          8           0       -1.053308    2.073552   -0.154218
      8          1           0       -2.007183    1.962273   -0.300306
 ---------------------------------------------------------------------

 Alpha  occ. eigenvalues --  -20.53602 -20.52739 -11.24278 -11.16139  -1.47723
 Alpha  occ. eigenvalues --   -1.24133  -1.02527  -0.79851  -0.70545  -0.67102
 Alpha  occ. eigenvalues --   -0.63721  -0.60063  -0.55285  -0.50459  -0.48570
 Alpha  occ. eigenvalues --   -0.35489
 Alpha virt. eigenvalues --    0.19553   0.22744   0.27578   0.32240   0.34175
 Alpha virt. eigenvalues --    0.36077   0.50248   0.57860   0.90377   0.97427
 Alpha virt. eigenvalues --    1.00220   1.07126   1.11007   1.12302   1.23296

 Mulliken charges:
               1
     1  C    0.174258
     2  C   -0.513089
     3  H    0.265572
     4  H    0.225642
     5  H    0.235437
     6  O   -0.422359
     7  O   -0.389670
     8  H    0.424209
 Sum of Mulliken charges =   0.00000

 Dipole moment (field-independent basis, Debye):
    X=             -0.3482    Y=              0.2773    Z=             -0.3417  Tot=              0.5612
 Quadrupole moment (field-independent basis, Debye-Ang):
   XX=            -16.6109   YY=            -22.4812   ZZ=            -25.6636
   XY=             -2.5772   XZ=              1.2377   YZ=             -0.4514

 Normal termination of Gaussian 09 at Fri Apr 12 15:37:49 2019.
