 Gaussian 09, Revision D.01,
 Gaussian 09:  AS64L-G09RevD.01 24-Apr-2013

 --------------------------------------------------------------------
 #p hf 3-21g scf=tight NoSymmetry guess=read opt=(tight,modredundant)
 --------------------------------------------------------------------

 -----------------------------------
 Geometry optimization at the 2D-PES
 -----------------------------------
 Symbolic Z-matrix:
 Charge =  0 Multiplicity = 1

 SCF Done:  E(RHF) =  -226.392203920     A.U. after   13 cycles
 SCF Done:  E(RHF) =  -226.392205072     A.U. after   10 cycles
 SCF Done:  E(RHF) =  -226.392205155     A.U. after    9 cycles
 SCF Done:  E(RHF) =  -226.392205173     A.U. after    7 cycles
 SCF Done:  E(RHF) =  -226.392205174     A.U. after    6 cycles
 Optimization completed.
    -- Stationary point found.

                          Input orientation:
 ---------------------------------------------------------------------
 Center     Atomic      Atomic             Coordinates (Angstroms)
 Number     Number       Type             X           Y           Z
 ---------------------------------------------------------------------
      1          6           0        0.729455    0.613266    0.047024
      2          6           0        1.380046   -0.519529   -0.013279
      3          1           0        1.198401    1.572929    0.108307
      4          1           0        2.450670   -0.535305   -0.000424
      5          1           0        0.861936   -1.455505   -0.057554
      6          8           0       -0.675131    0.687332   -0.005002
      7          8           0       -1.187197    0.127739    1.262974
      8          1           0       -2.131423    0.082434    1.033913
 ---------------------------------------------------------------------

 Alpha  occ. eigenvalues --  -20.52129 -20.51581 -11.23535 -11.17403  -1.45910
 Alpha  occ. eigenvalues --   -1.22906  -1.03029  -0.78864  -0.69776  -0.67421
 Alpha  occ. eigenvalues --   -0.64047  -0.57852  -0.54700  -0.51262  -0.44320
 Alpha  occ. eigenvalues --   -0.37630
 Alpha virt. eigenvalues --    0.15607   0.27330   0.29438   0.30397   0.32116
 Alpha virt. eigenvalues --    0.37013   0.49946   0.57003   0.88975   0.97561
 Alpha virt. eigenvalues --    0.99478   1.06994   1.10356   1.12415   1.23516

 Mulliken charges:
               1
     1  C    0.138504
     2  C   -0.451783
     3  H    0.240293
     4  H    0.226114
     5  H    0.244749
     6  O   -0.423442
     7  O   -0.388999
     8  H    0.414564
 Sum of Mulliken charges =   0.00000

 Dipole moment (field-independent basis, Debye):
    X=              0.0297    Y=             -0.4486    Z=             -0.1648  Tot=              0.4789
 Quadrupole moment (field-independent basis, Debye-Ang):
   XX=            -15.9076   YY=            -22.3346   ZZ=            -26.7422
   XY=              1.2525   XZ=             -1.5751   YZ=              0.1803

 Normal termination of Gaussian 09 at Fri Apr 12 16:54:06 2019.
