 Gaussian 09, Revision D.01,
 Gaussian 09:  AS64L-G09RevD.01 24-Apr-2013

 --------------------------------------------------------------------
 #p hf 3-21g scf=tight NoSymmetry guess=read opt=(tight,modredundant)
 --------------------------------------------------------------------

 -----------------------------------
 Geometry optimization at the 2D-PES
 -----------------------------------
 Symbolic Z-matrix:
 Charge =  0 Multiplicity = 1

 SCF Done:  E(RHF) =  -226.394409761     A.U. after   13 cycles
 SCF Done:  E(RHF) =  -226.394413275     A.U. after   11 cycles
 SCF Done:  E(RHF) =  -226.394415298     A.U. after   10 cycles
 SCF Done:  E(RHF) =  -226.394415346     A.U. after    8 cycles
 SCF Done:  E(RHF) =  -226.394415350     A.U. after    6 cycles
 Optimization completed.
    -- Stationary point found.

                          Input orientation:
 ---------------------------------------------------------------------
 Center     Atomic      Atomic             Coordinates (Angstroms)
 Number     Number       Type             X           Y           Z
 ---------------------------------------------------------------------
      1          6           0        0.725813    0.629699    0.044160
      2          6           0        1.368040   -0.508850    0.003549
      3          1           0        1.190291    1.588874    0.132017
      4          1           0        2.438508   -0.534983    0.008104
      5          1           0        0.837111   -1.437036   -0.051416
      6          8           0       -0.677834    0.665550   -0.029792
      7          8           0       -1.133038    1.072562    1.314137
      8          1           0       -1.952780    1.535235    1.070550
 ---------------------------------------------------------------------

 Alpha  occ. eigenvalues --  -20.52488 -20.51633 -11.23663 -11.17476  -1.46290
 Alpha  occ. eigenvalues --   -1.23112  -1.02962  -0.79244  -0.69338  -0.67977
 Alpha  occ. eigenvalues --   -0.64663  -0.56958  -0.55064  -0.51283  -0.44724
 Alpha  occ. eigenvalues --   -0.37889
 Alpha virt. eigenvalues --    0.16039   0.27309   0.28836   0.31236   0.32238
 Alpha virt. eigenvalues --    0.36223   0.49341   0.57018   0.89354   0.97455
 Alpha virt. eigenvalues --    0.99462   1.07239   1.10649   1.12688   1.22954

 Mulliken charges:
               1
     1  C    0.146798
     2  C   -0.460186
     3  H    0.235420
     4  H    0.226430
     5  H    0.247334
     6  O   -0.416725
     7  O   -0.392896
     8  H    0.413824
 Sum of Mulliken charges =   0.00000

 Dipole moment (field-independent basis, Debye):
    X=              0.2827    Y=              0.8299    Z=             -0.2308  Tot=              0.9066
 Quadrupole moment (field-independent basis, Debye-Ang):
   XX=            -17.3681   YY=            -19.4235   ZZ=            -26.9327
   XY=             -2.9023   XZ=             -1.3813   YZ=              0.9236

 Normal termination of Gaussian 09 at Fri Apr 12 16:24:24 2019.
