 Gaussian 09, Revision D.01,
 Gaussian 09:  AS64L-G09RevD.01 24-Apr-2013

 --------------------------------------------------------------------
 #p hf 3-21g scf=tight NoSymmetry guess=read opt=(tight,modredundant)
 --------------------------------------------------------------------

 -----------------------------------
 Geometry optimization at the 2D-PES
 -----------------------------------
 Symbolic Z-matrix:
 Charge =  0 Multiplicity = 1

 SCF Done:  E(RHF) =  -226.383441967     A.U. after   15 cycles
 SCF Done:  E(RHF) =  -226.383454367     A.U. after   13 cycles
 SCF Done:  E(RHF) =  -226.383469955     A.U. after   12 cycles
 SCF Done:  E(RHF) =  -226.383470017     A.U. after    9 cycles
 SCF Done:  E(RHF) =  -226.383470026     A.U. after    8 cycles
 Optimization completed.
    -- Stationary point found.

                          Input orientation:
 ---------------------------------------------------------------------
 Center     Atomic      Atomic             Coordinates (Angstroms)
 Number     Number       Type             X           Y           Z
 ---------------------------------------------------------------------
      1          6           0        0.734698    0.604606    0.022433
      2          6           0        1.408853   -0.518908    0.004217
      3          1           0        1.195813    1.568048    0.079666
      4          1           0        2.478515   -0.507167    0.036903
      5          1           0        0.934503   -1.481075   -0.020156
      6          8           0       -0.671593    0.687741    0.002598
      7          8           0       -1.228281    0.066970   -1.207441
      8          1           0       -0.795620   -0.804038   -1.236759
 ---------------------------------------------------------------------

 Alpha  occ. eigenvalues --  -20.53254 -20.52576 -11.25518 -11.19122  -1.47207
 Alpha  occ. eigenvalues --   -1.23730  -1.05147  -0.80716  -0.72818  -0.66988
 Alpha  occ. eigenvalues --   -0.64059  -0.59090  -0.55733  -0.51447  -0.46816
 Alpha  occ. eigenvalues --   -0.38781
 Alpha virt. eigenvalues --    0.14628   0.22874   0.27887   0.29037   0.33564
 Alpha virt. eigenvalues --    0.36546   0.50147   0.56263   0.87632   0.95632
 Alpha virt. eigenvalues --    0.99475   1.05323   1.08499   1.10775   1.24700

 Mulliken charges:
               1
     1  C    0.129375
     2  C   -0.494680
     3  H    0.257730
     4  H    0.241143
     5  H    0.222372
     6  O   -0.392965
     7  O   -0.366015
     8  H    0.403040
 Sum of Mulliken charges =   0.00000

 Dipole moment (field-independent basis, Debye):
    X=              2.8390    Y=             -1.8495    Z=             -0.2067  Tot=              3.3946
 Quadrupole moment (field-independent basis, Debye-Ang):
   XX=            -24.6225   YY=            -20.7328   ZZ=            -25.5093
   XY=              2.9188   XZ=             -0.7198   YZ=              2.3091

 Normal termination of Gaussian 09 at Fri Apr 12 14:57:42 2019.
