 Gaussian 09, Revision D.01,
 Gaussian 09:  AS64L-G09RevD.01 24-Apr-2013

 --------------------------------------------------------------------
 #p hf 3-21g scf=tight NoSymmetry guess=read opt=(tight,modredundant)
 --------------------------------------------------------------------

 -----------------------------------
 Geometry optimization at the 2D-PES
 -----------------------------------
 Symbolic Z-matrix:
 Charge =  0 Multiplicity = 1

 SCF Done:  E(RHF) =  -226.396278391     A.U. after   12 cycles
 SCF Done:  E(RHF) =  -226.396288702     A.U. after   11 cycles
 SCF Done:  E(RHF) =  -226.396299299     A.U. after   10 cycles
 SCF Done:  E(RHF) =  -226.396299445     A.U. after    9 cycles
 SCF Done:  E(RHF) =  -226.396299455     A.U. after    8 cycles
 SCF Done:  E(RHF) =  -226.396299455     A.U. after    6 cycles
 Optimization completed.
    -- Stationary point found.

                          Input orientation:
 ---------------------------------------------------------------------
 Center     Atomic      Atomic             Coordinates (Angstroms)
 Number     Number       Type             X           Y           Z
 ---------------------------------------------------------------------
      1          6           0        0.740481    0.571987    0.037874
      2          6           0        1.429244   -0.537467   -0.045002
      3          1           0        1.170415    1.550921    0.087915
      4          1           0        2.498647   -0.500851   -0.048605
      5          1           0        0.952327   -1.490193   -0.119460
      6          8           0       -0.652242    0.704222    0.046691
      7          8           0       -1.286391   -0.600048    0.185821
      8          1           0       -1.355359   -0.678539    1.154594
 ---------------------------------------------------------------------

 Alpha  occ. eigenvalues --  -20.54316 -20.53251 -11.24763 -11.16555  -1.48540
 Alpha  occ. eigenvalues --   -1.24170  -1.03609  -0.80090  -0.70111  -0.69626
 Alpha  occ. eigenvalues --   -0.64562  -0.57769  -0.55083  -0.51440  -0.48816
 Alpha  occ. eigenvalues --   -0.36613
 Alpha virt. eigenvalues --    0.19098   0.22723   0.28577   0.29488   0.33267
 Alpha virt. eigenvalues --    0.37089   0.49510   0.58457   0.88544   0.96450
 Alpha virt. eigenvalues --    1.00847   1.06770   1.09966   1.11594   1.23782

 Mulliken charges:
               1
     1  C    0.135506
     2  C   -0.511898
     3  H    0.260969
     4  H    0.223614
     5  H    0.249237
     6  O   -0.399197
     7  O   -0.370825
     8  H    0.412594
 Sum of Mulliken charges =   0.00000

 Dipole moment (field-independent basis, Debye):
    X=              1.4399    Y=             -0.3247    Z=              2.0519  Tot=              2.5276
 Quadrupole moment (field-independent basis, Debye-Ang):
   XX=            -22.8823   YY=            -22.1428   ZZ=            -22.7801
   XY=              1.9986   XZ=             -2.9444   YZ=             -1.2657

 Normal termination of Gaussian 09 at Fri Apr 12 17:46:40 2019.
