 Gaussian 09, Revision D.01,
 Gaussian 09:  AS64L-G09RevD.01 24-Apr-2013

 --------------------------------------------------------------------
 #p hf 3-21g scf=tight NoSymmetry guess=read opt=(tight,modredundant)
 --------------------------------------------------------------------

 -----------------------------------
 Geometry optimization at the 2D-PES
 -----------------------------------
 Symbolic Z-matrix:
 Charge =  0 Multiplicity = 1

 SCF Done:  E(RHF) =  -226.392763314     A.U. after   13 cycles
 SCF Done:  E(RHF) =  -226.392764257     A.U. after   11 cycles
 SCF Done:  E(RHF) =  -226.392764854     A.U. after    9 cycles
 SCF Done:  E(RHF) =  -226.392764869     A.U. after    7 cycles
 SCF Done:  E(RHF) =  -226.392764870     A.U. after    6 cycles
 Optimization completed.
    -- Stationary point found.

                          Input orientation:
 ---------------------------------------------------------------------
 Center     Atomic      Atomic             Coordinates (Angstroms)
 Number     Number       Type             X           Y           Z
 ---------------------------------------------------------------------
      1          6           0        0.725752    0.623583    0.040036
      2          6           0        1.370374   -0.513344   -0.002281
      3          1           0        1.194942    1.581151    0.124678
      4          1           0        2.440879   -0.537632    0.016887
      5          1           0        0.843340   -1.443618   -0.061987
      6          8           0       -0.680074    0.670806   -0.025185
      7          8           0       -1.155207    0.592658    1.373512
      8          1           0       -2.094150    0.798495    1.224732
 ---------------------------------------------------------------------

 Alpha  occ. eigenvalues --  -20.52068 -20.51373 -11.23481 -11.17627  -1.45780
 Alpha  occ. eigenvalues --   -1.22827  -1.03012  -0.78999  -0.69502  -0.67423
 Alpha  occ. eigenvalues --   -0.64173  -0.57516  -0.55049  -0.51127  -0.43456
 Alpha  occ. eigenvalues --   -0.38394
 Alpha virt. eigenvalues --    0.15494   0.27880   0.29233   0.30711   0.32064
 Alpha virt. eigenvalues --    0.36625   0.49557   0.56919   0.89061   0.97592
 Alpha virt. eigenvalues --    0.99205   1.07163   1.10471   1.12342   1.23677

 Mulliken charges:
               1
     1  C    0.139178
     2  C   -0.447836
     3  H    0.234952
     4  H    0.226646
     5  H    0.247245
     6  O   -0.421033
     7  O   -0.392895
     8  H    0.413743
 Sum of Mulliken charges =   0.00000

 Dipole moment (field-independent basis, Debye):
    X=              0.0957    Y=              0.1426    Z=              0.0007  Tot=              0.1717
 Quadrupole moment (field-independent basis, Debye-Ang):
   XX=            -16.1151   YY=            -21.5911   ZZ=            -26.4518
   XY=             -1.0760   XZ=             -2.1943   YZ=              0.7705

 Normal termination of Gaussian 09 at Fri Apr 12 16:39:43 2019.
