 Gaussian 09, Revision D.01,
 Gaussian 09:  AS64L-G09RevD.01 24-Apr-2013

 --------------------------------------------------------------------
 #p hf 3-21g scf=tight NoSymmetry guess=read opt=(tight,modredundant)
 --------------------------------------------------------------------

 -----------------------------------
 Geometry optimization at the 2D-PES
 -----------------------------------
 Symbolic Z-matrix:
 Charge =  0 Multiplicity = 1

 SCF Done:  E(RHF) =  -226.396057403     A.U. after   13 cycles
 SCF Done:  E(RHF) =  -226.396061311     A.U. after   11 cycles
 SCF Done:  E(RHF) =  -226.396063623     A.U. after   10 cycles
 SCF Done:  E(RHF) =  -226.396063674     A.U. after    8 cycles
 SCF Done:  E(RHF) =  -226.396063675     A.U. after    6 cycles
 Optimization completed.
    -- Stationary point found.

                          Input orientation:
 ---------------------------------------------------------------------
 Center     Atomic      Atomic             Coordinates (Angstroms)
 Number     Number       Type             X           Y           Z
 ---------------------------------------------------------------------
      1          6           0        0.729337    0.635900    0.054178
      2          6           0        1.368876   -0.504554    0.001744
      3          1           0        1.189672    1.597807    0.120816
      4          1           0        2.438775   -0.527751   -0.019913
      5          1           0        0.839751   -1.434608   -0.034887
      6          8           0       -0.669656    0.673170   -0.017942
      7          8           0       -1.098900    1.693595    0.948314
      8          1           0       -1.813135    2.110766    0.438036
 ---------------------------------------------------------------------

 Alpha  occ. eigenvalues --  -20.53275 -20.52345 -11.24052 -11.16850  -1.47304
 Alpha  occ. eigenvalues --   -1.23751  -1.02794  -0.79579  -0.69706  -0.68481
 Alpha  occ. eigenvalues --   -0.64981  -0.56462  -0.55134  -0.52055  -0.47080
 Alpha  occ. eigenvalues --   -0.36545
 Alpha virt. eigenvalues --    0.17472   0.25176   0.28243   0.31898   0.32921
 Alpha virt. eigenvalues --    0.36026   0.49559   0.57410   0.90086   0.97243
 Alpha virt. eigenvalues --    1.00217   1.06832   1.10883   1.12769   1.22489

 Mulliken charges:
               1
     1  C    0.161646
     2  C   -0.490073
     3  H    0.247070
     4  H    0.226067
     5  H    0.242935
     6  O   -0.415634
     7  O   -0.388786
     8  H    0.416775
 Sum of Mulliken charges =   0.00000

 Dipole moment (field-independent basis, Debye):
    X=              0.3209    Y=              1.0607    Z=             -0.8606  Tot=              1.4031
 Quadrupole moment (field-independent basis, Debye-Ang):
   XX=            -18.4882   YY=            -18.3157   ZZ=            -27.2520
   XY=             -3.2080   XZ=              0.4897   YZ=             -1.1456

 Normal termination of Gaussian 09 at Fri Apr 12 16:02:21 2019.
