 Gaussian 09, Revision D.01,
 Gaussian 09:  AS64L-G09RevD.01 24-Apr-2013

 --------------------------------------------------------------------
 #p hf 3-21g scf=tight NoSymmetry guess=read opt=(tight,modredundant)
 --------------------------------------------------------------------

 -----------------------------------
 Geometry optimization at the 2D-PES
 -----------------------------------
 Symbolic Z-matrix:
 Charge =  0 Multiplicity = 1

 SCF Done:  E(RHF) =  -226.392578371     A.U. after   13 cycles
 SCF Done:  E(RHF) =  -226.392583250     A.U. after   11 cycles
 SCF Done:  E(RHF) =  -226.392585612     A.U. after   10 cycles
 SCF Done:  E(RHF) =  -226.392585675     A.U. after    8 cycles
 SCF Done:  E(RHF) =  -226.392585681     A.U. after    7 cycles
 SCF Done:  E(RHF) =  -226.392585682     A.U. after    6 cycles
 Optimization completed.
    -- Stationary point found.

                          Input orientation:
 ---------------------------------------------------------------------
 Center     Atomic      Atomic             Coordinates (Angstroms)
 Number     Number       Type             X           Y           Z
 ---------------------------------------------------------------------
      1          6           0        0.726109    0.625296    0.043305
      2          6           0        1.373005   -0.510984    0.000697
      3          1           0        1.192601    1.583527    0.126668
      4          1           0        2.443595   -0.532574    0.011752
      5          1           0        0.851433   -1.444321   -0.066108
      6          8           0       -0.681307    0.667290   -0.020723
      7          8           0       -1.152878    0.835342    1.367896
      8          1           0       -1.813239    0.122421    1.400333
 ---------------------------------------------------------------------

 Alpha  occ. eigenvalues --  -20.52444 -20.51669 -11.23891 -11.17933  -1.46285
 Alpha  occ. eigenvalues --   -1.23038  -1.03390  -0.79377  -0.70377  -0.67196
 Alpha  occ. eigenvalues --   -0.63618  -0.59193  -0.55817  -0.49094  -0.44969
 Alpha  occ. eigenvalues --   -0.38711
 Alpha virt. eigenvalues --    0.15532   0.26846   0.28893   0.31056   0.31568
 Alpha virt. eigenvalues --    0.36248   0.49321   0.56621   0.88840   0.97253
 Alpha virt. eigenvalues --    0.98316   1.06919   1.09926   1.12786   1.23171

 Mulliken charges:
               1
     1  C    0.143808
     2  C   -0.460792
     3  H    0.241874
     4  H    0.229458
     5  H    0.236999
     6  O   -0.414204
     7  O   -0.389753
     8  H    0.412610
 Sum of Mulliken charges =   0.00000

 Dipole moment (field-independent basis, Debye):
    X=              0.6513    Y=             -1.6642    Z=              0.3709  Tot=              1.8252
 Quadrupole moment (field-independent basis, Debye-Ang):
   XX=            -18.6260   YY=            -23.5256   ZZ=            -25.4227
   XY=              2.9664   XZ=             -2.2243   YZ=             -1.7224

 Normal termination of Gaussian 09 at Fri Apr 12 16:27:42 2019.
