 Gaussian 09, Revision D.01,
 Gaussian 09:  AS64L-G09RevD.01 24-Apr-2013

 --------------------------------------------------------------------
 #p hf 3-21g scf=tight NoSymmetry guess=read opt=(tight,modredundant)
 --------------------------------------------------------------------

 -----------------------------------
 Geometry optimization at the 2D-PES
 -----------------------------------
 Symbolic Z-matrix:
 Charge =  0 Multiplicity = 1

 SCF Done:  E(RHF) =  -226.380926817     A.U. after   13 cycles
 SCF Done:  E(RHF) =  -226.380931054     A.U. after   10 cycles
 SCF Done:  E(RHF) =  -226.380932116     A.U. after   11 cycles
 SCF Done:  E(RHF) =  -226.380932147     A.U. after    8 cycles
 SCF Done:  E(RHF) =  -226.380932152     A.U. after    7 cycles
 Optimization completed.
    -- Stationary point found.

                          Input orientation:
 ---------------------------------------------------------------------
 Center     Atomic      Atomic             Coordinates (Angstroms)
 Number     Number       Type             X           Y           Z
 ---------------------------------------------------------------------
      1          6           0        0.750693    0.616190    0.033069
      2          6           0        1.397371   -0.522891   -0.014680
      3          1           0        1.225161    1.574790    0.079018
      4          1           0        2.468128   -0.545451   -0.008780
      5          1           0        0.871507   -1.454736   -0.077899
      6          8           0       -0.658817    0.673147    0.001971
      7          8           0       -1.218753    0.377632    1.341070
      8          1           0       -0.433264    0.218981    1.897504
 ---------------------------------------------------------------------

 Alpha  occ. eigenvalues --  -20.52687 -20.51851 -11.25218 -11.19738  -1.46242
 Alpha  occ. eigenvalues --   -1.23326  -1.05141  -0.81242  -0.71757  -0.67731
 Alpha  occ. eigenvalues --   -0.60091  -0.59387  -0.56977  -0.52724  -0.44092
 Alpha  occ. eigenvalues --   -0.39913
 Alpha virt. eigenvalues --    0.13488   0.26503   0.27396   0.29052   0.30472
 Alpha virt. eigenvalues --    0.36367   0.49439   0.54896   0.87273   0.96760
 Alpha virt. eigenvalues --    0.97499   1.04506   1.08237   1.11056   1.23466

 Mulliken charges:
               1
     1  C    0.065892
     2  C   -0.452532
     3  H    0.247028
     4  H    0.236684
     5  H    0.258137
     6  O   -0.379491
     7  O   -0.373342
     8  H    0.397624
 Sum of Mulliken charges =   0.00000

 Dipole moment (field-independent basis, Debye):
    X=              3.7100    Y=             -0.6889    Z=              1.2430  Tot=              3.9729
 Quadrupole moment (field-independent basis, Debye-Ang):
   XX=            -25.3473   YY=            -22.3505   ZZ=            -21.7698
   XY=              1.7733   XZ=              1.6035   YZ=              0.0855

 Normal termination of Gaussian 09 at Fri Apr 12 16:49:07 2019.
