 Gaussian 09, Revision D.01,
 Gaussian 09:  AS64L-G09RevD.01 24-Apr-2013

 --------------------------------------------------------------------
 #p hf 3-21g scf=tight NoSymmetry guess=read opt=(tight,modredundant)
 --------------------------------------------------------------------

 -----------------------------------
 Geometry optimization at the 2D-PES
 -----------------------------------
 Symbolic Z-matrix:
 Charge =  0 Multiplicity = 1

 SCF Done:  E(RHF) =  -226.387820681     A.U. after   13 cycles
 SCF Done:  E(RHF) =  -226.387810913     A.U. after   13 cycles
 SCF Done:  E(RHF) =  -226.387930781     A.U. after   11 cycles
 SCF Done:  E(RHF) =  -226.387931957     A.U. after   10 cycles
 SCF Done:  E(RHF) =  -226.387932095     A.U. after    9 cycles
 SCF Done:  E(RHF) =  -226.387932111     A.U. after    8 cycles
 SCF Done:  E(RHF) =  -226.387932112     A.U. after    6 cycles
 Optimization completed.
    -- Stationary point found.

                          Input orientation:
 ---------------------------------------------------------------------
 Center     Atomic      Atomic             Coordinates (Angstroms)
 Number     Number       Type             X           Y           Z
 ---------------------------------------------------------------------
      1          6           0        0.745045    0.566329    0.004857
      2          6           0        1.456295   -0.534148   -0.053898
      3          1           0        1.173210    1.543029    0.090757
      4          1           0        2.523584   -0.471574   -0.024304
      5          1           0        1.034544   -1.507519   -0.192448
      6          8           0       -0.638145    0.699644    0.037203
      7          8           0       -1.340988   -0.577266   -0.001261
      8          1           0       -0.805313   -1.154717    0.574446
 ---------------------------------------------------------------------

 Alpha  occ. eigenvalues --  -20.54987 -20.53555 -11.26292 -11.17930  -1.49060
 Alpha  occ. eigenvalues --   -1.24960  -1.05092  -0.81277  -0.72955  -0.68436
 Alpha  occ. eigenvalues --   -0.65281  -0.57696  -0.55072  -0.53954  -0.49164
 Alpha  occ. eigenvalues --   -0.37375
 Alpha virt. eigenvalues --    0.18287   0.21411   0.27423   0.28192   0.34055
 Alpha virt. eigenvalues --    0.36646   0.49200   0.58882   0.87941   0.95806
 Alpha virt. eigenvalues --    1.00668   1.05577   1.08269   1.11036   1.24110

 Mulliken charges:
               1
     1  C    0.149687
     2  C   -0.541383
     3  H    0.272477
     4  H    0.237415
     5  H    0.221069
     6  O   -0.389543
     7  O   -0.361752
     8  H    0.412030
 Sum of Mulliken charges =   0.00000

 Dipole moment (field-independent basis, Debye):
    X=              2.6533    Y=             -1.0895    Z=              1.1060  Tot=              3.0741
 Quadrupole moment (field-independent basis, Debye-Ang):
   XX=            -25.4419   YY=            -20.1572   ZZ=            -25.0774
   XY=              2.1332   XZ=             -0.8805   YZ=             -1.1707

 Normal termination of Gaussian 09 at Fri Apr 12 18:03:18 2019.
