 Gaussian 09, Revision D.01,
 Gaussian 09:  AS64L-G09RevD.01 24-Apr-2013

 --------------------------------------------------------------------
 #p hf 3-21g scf=tight NoSymmetry guess=read opt=(tight,modredundant)
 --------------------------------------------------------------------

 -----------------------------------
 Geometry optimization at the 2D-PES
 -----------------------------------
 Symbolic Z-matrix:
 Charge =  0 Multiplicity = 1

 SCF Done:  E(RHF) =  -226.384494195     A.U. after   13 cycles
 SCF Done:  E(RHF) =  -226.384502471     A.U. after   12 cycles
 SCF Done:  E(RHF) =  -226.384510808     A.U. after   11 cycles
 SCF Done:  E(RHF) =  -226.384510846     A.U. after    9 cycles
 SCF Done:  E(RHF) =  -226.384510851     A.U. after    7 cycles
 SCF Done:  E(RHF) =  -226.384510851     A.U. after    7 cycles
 Optimization completed.
    -- Stationary point found.

                          Input orientation:
 ---------------------------------------------------------------------
 Center     Atomic      Atomic             Coordinates (Angstroms)
 Number     Number       Type             X           Y           Z
 ---------------------------------------------------------------------
      1          6           0        0.747334    0.618934    0.041787
      2          6           0        1.388215   -0.520181   -0.007329
      3          1           0        1.226716    1.576708    0.089870
      4          1           0        2.458963   -0.549971   -0.006412
      5          1           0        0.853528   -1.446836   -0.057229
      6          8           0       -0.663990    0.679478   -0.008843
      7          8           0       -1.202394    0.610220    1.362031
      8          1           0       -0.689676    1.286078    1.843616
 ---------------------------------------------------------------------

 Alpha  occ. eigenvalues --  -20.52707 -20.51925 -11.24430 -11.18939  -1.46432
 Alpha  occ. eigenvalues --   -1.23094  -1.04265  -0.80979  -0.69930  -0.68791
 Alpha  occ. eigenvalues --   -0.60849  -0.58787  -0.57617  -0.49975  -0.44952
 Alpha  occ. eigenvalues --   -0.39467
 Alpha virt. eigenvalues --    0.14048   0.26889   0.27597   0.29784   0.31632
 Alpha virt. eigenvalues --    0.35923   0.49441   0.55708   0.87619   0.96444
 Alpha virt. eigenvalues --    0.98423   1.06245   1.09393   1.10409   1.25201

 Mulliken charges:
               1
     1  C    0.076920
     2  C   -0.437922
     3  H    0.231862
     4  H    0.230855
     5  H    0.259754
     6  O   -0.382543
     7  O   -0.374515
     8  H    0.395590
 Sum of Mulliken charges =   0.00000

 Dipole moment (field-independent basis, Debye):
    X=              3.1461    Y=              0.8917    Z=              1.1594  Tot=              3.4695
 Quadrupole moment (field-independent basis, Debye-Ang):
   XX=            -24.7856   YY=            -19.5060   ZZ=            -22.3849
   XY=              0.6119   XZ=              0.6872   YZ=              3.6082

 Normal termination of Gaussian 09 at Fri Apr 12 16:36:15 2019.
