 Gaussian 09, Revision D.01,
 Gaussian 09:  AS64L-G09RevD.01 24-Apr-2013

 --------------------------------------------------------------------
 #p hf 3-21g scf=tight NoSymmetry guess=read opt=(tight,modredundant)
 --------------------------------------------------------------------

 -----------------------------------
 Geometry optimization at the 2D-PES
 -----------------------------------
 Symbolic Z-matrix:
 Charge =  0 Multiplicity = 1

 SCF Done:  E(RHF) =  -226.392791618     A.U. after   13 cycles
 SCF Done:  E(RHF) =  -226.392793593     A.U. after   11 cycles
 SCF Done:  E(RHF) =  -226.392795112     A.U. after   10 cycles
 SCF Done:  E(RHF) =  -226.392795135     A.U. after    7 cycles
 SCF Done:  E(RHF) =  -226.392795137     A.U. after    6 cycles
 Optimization completed.
    -- Stationary point found.

                          Input orientation:
 ---------------------------------------------------------------------
 Center     Atomic      Atomic             Coordinates (Angstroms)
 Number     Number       Type             X           Y           Z
 ---------------------------------------------------------------------
      1          6           0        0.726084    0.623654    0.039413
      2          6           0        1.370563   -0.513309   -0.002241
      3          1           0        1.195293    1.581261    0.124727
      4          1           0        2.441055   -0.537840    0.017611
      5          1           0        0.842965   -1.443219   -0.062328
      6          8           0       -0.680067    0.670317   -0.025622
      7          8           0       -1.155263    0.593047    1.372486
      8          1           0       -2.048892    0.957360    1.250737
 ---------------------------------------------------------------------

 Alpha  occ. eigenvalues --  -20.52097 -20.51402 -11.23483 -11.17612  -1.45827
 Alpha  occ. eigenvalues --   -1.22830  -1.03010  -0.79020  -0.69687  -0.67090
 Alpha  occ. eigenvalues --   -0.64369  -0.57570  -0.55007  -0.50965  -0.43587
 Alpha  occ. eigenvalues --   -0.38395
 Alpha virt. eigenvalues --    0.15528   0.27767   0.29231   0.30769   0.32118
 Alpha virt. eigenvalues --    0.36586   0.49522   0.56912   0.89037   0.97607
 Alpha virt. eigenvalues --    0.99127   1.07215   1.10519   1.12495   1.23426

 Mulliken charges:
               1
     1  C    0.138018
     2  C   -0.447757
     3  H    0.233702
     4  H    0.226412
     5  H    0.248550
     6  O   -0.419705
     7  O   -0.392434
     8  H    0.413213
 Sum of Mulliken charges =   0.00000

 Dipole moment (field-independent basis, Debye):
    X=              0.1903    Y=              0.4749    Z=              0.0581  Tot=              0.5149
 Quadrupole moment (field-independent basis, Debye-Ang):
   XX=            -16.5589   YY=            -20.9660   ZZ=            -26.3087
   XY=             -1.7596   XZ=             -2.1944   YZ=              1.2536

 Normal termination of Gaussian 09 at Fri Apr 12 16:39:26 2019.
