 Gaussian 09, Revision D.01,
 Gaussian 09:  AS64L-G09RevD.01 24-Apr-2013

 --------------------------------------------------------------------
 #p hf 3-21g scf=tight NoSymmetry guess=read opt=(tight,modredundant)
 --------------------------------------------------------------------

 -----------------------------------
 Geometry optimization at the 2D-PES
 -----------------------------------
 Symbolic Z-matrix:
 Charge =  0 Multiplicity = 1

 SCF Done:  E(RHF) =  -226.390157994     A.U. after   13 cycles
 SCF Done:  E(RHF) =  -226.390163277     A.U. after   12 cycles
 SCF Done:  E(RHF) =  -226.390232441     A.U. after   12 cycles
 SCF Done:  E(RHF) =  -226.390232895     A.U. after   10 cycles
 SCF Done:  E(RHF) =  -226.390232955     A.U. after    8 cycles
 SCF Done:  E(RHF) =  -226.390232960     A.U. after    7 cycles
 Optimization completed.
    -- Stationary point found.

                          Input orientation:
 ---------------------------------------------------------------------
 Center     Atomic      Atomic             Coordinates (Angstroms)
 Number     Number       Type             X           Y           Z
 ---------------------------------------------------------------------
      1          6           0        0.743252    0.569694    0.007432
      2          6           0        1.447314   -0.534705   -0.052217
      3          1           0        1.172193    1.546180    0.092167
      4          1           0        2.515213   -0.481385   -0.024597
      5          1           0        1.009737   -1.501084   -0.186717
      6          8           0       -0.642057    0.701012    0.036521
      7          8           0       -1.323400   -0.586182   -0.007632
      8          1           0       -0.875590   -1.100145    0.691550
 ---------------------------------------------------------------------

 Alpha  occ. eigenvalues --  -20.54920 -20.53582 -11.26010 -11.17685  -1.49074
 Alpha  occ. eigenvalues --   -1.24799  -1.04834  -0.81069  -0.72486  -0.68624
 Alpha  occ. eigenvalues --   -0.65378  -0.57322  -0.55213  -0.53658  -0.49098
 Alpha  occ. eigenvalues --   -0.37315
 Alpha virt. eigenvalues --    0.18468   0.21639   0.27718   0.28544   0.33397
 Alpha virt. eigenvalues --    0.36663   0.49251   0.58457   0.87995   0.96099
 Alpha virt. eigenvalues --    1.00300   1.05716   1.08599   1.11097   1.24411

 Mulliken charges:
               1
     1  C    0.146735
     2  C   -0.536655
     3  H    0.270623
     4  H    0.234521
     5  H    0.226724
     6  O   -0.390116
     7  O   -0.361753
     8  H    0.409922
 Sum of Mulliken charges =   0.00000

 Dipole moment (field-independent basis, Debye):
    X=              2.4759    Y=             -0.9969    Z=              1.3601  Tot=              2.9957
 Quadrupole moment (field-independent basis, Debye-Ang):
   XX=            -25.1607   YY=            -20.4516   ZZ=            -24.7219
   XY=              2.1825   XZ=             -1.2127   YZ=             -1.3988

 Normal termination of Gaussian 09 at Fri Apr 12 18:03:00 2019.
