 Gaussian 09, Revision D.01,
 Gaussian 09:  AS64L-G09RevD.01 24-Apr-2013

 --------------------------------------------------------------------
 #p hf 3-21g scf=tight NoSymmetry guess=read opt=(tight,modredundant)
 --------------------------------------------------------------------

 -----------------------------------
 Geometry optimization at the 2D-PES
 -----------------------------------
 Symbolic Z-matrix:
 Charge =  0 Multiplicity = 1

 SCF Done:  E(RHF) =  -226.382348853     A.U. after   13 cycles
 SCF Done:  E(RHF) =  -226.382369690     A.U. after   13 cycles
 SCF Done:  E(RHF) =  -226.382389350     A.U. after   11 cycles
 SCF Done:  E(RHF) =  -226.382389540     A.U. after    9 cycles
 SCF Done:  E(RHF) =  -226.382389582     A.U. after    9 cycles
 SCF Done:  E(RHF) =  -226.382389583     A.U. after    6 cycles
 Optimization completed.
    -- Stationary point found.

                          Input orientation:
 ---------------------------------------------------------------------
 Center     Atomic      Atomic             Coordinates (Angstroms)
 Number     Number       Type             X           Y           Z
 ---------------------------------------------------------------------
      1          6           0        0.756082    0.635165    0.016275
      2          6           0        1.384906   -0.512303   -0.011664
      3          1           0        1.240069    1.587479    0.108583
      4          1           0        2.452578   -0.551787    0.055868
      5          1           0        0.844702   -1.434110   -0.083092
      6          8           0       -0.646570    0.680622    0.041963
      7          8           0       -1.137137    1.768670   -0.822494
      8          1           0       -0.396566    1.959546   -1.427178
 ---------------------------------------------------------------------

 Alpha  occ. eigenvalues --  -20.53694 -20.52553 -11.25360 -11.18664  -1.47335
 Alpha  occ. eigenvalues --   -1.24128  -1.04421  -0.81656  -0.72088  -0.66988
 Alpha  occ. eigenvalues --   -0.62628  -0.59298  -0.55418  -0.53133  -0.46774
 Alpha  occ. eigenvalues --   -0.37944
 Alpha virt. eigenvalues --    0.14953   0.24465   0.26845   0.30485   0.32441
 Alpha virt. eigenvalues --    0.35254   0.49233   0.56036   0.88153   0.96169
 Alpha virt. eigenvalues --    0.98734   1.06180   1.09449   1.10894   1.24062

 Mulliken charges:
               1
     1  C    0.089300
     2  C   -0.471272
     3  H    0.242216
     4  H    0.233097
     5  H    0.254523
     6  O   -0.375662
     7  O   -0.372051
     8  H    0.399849
 Sum of Mulliken charges =   0.00000

 Dipole moment (field-independent basis, Debye):
    X=              3.4382    Y=              0.2497    Z=             -1.2849  Tot=              3.6789
 Quadrupole moment (field-independent basis, Debye-Ang):
   XX=            -25.1828   YY=            -20.5431   ZZ=            -22.7774
   XY=              3.5773   XZ=             -0.4289   YZ=             -2.7290

 Normal termination of Gaussian 09 at Fri Apr 12 15:24:51 2019.
