 Gaussian 09, Revision D.01,
 Gaussian 09:  AS64L-G09RevD.01 24-Apr-2013

 --------------------------------------------------------------------
 #p hf 3-21g scf=tight NoSymmetry guess=read opt=(tight,modredundant)
 --------------------------------------------------------------------

 -----------------------------------
 Geometry optimization at the 2D-PES
 -----------------------------------
 Symbolic Z-matrix:
 Charge =  0 Multiplicity = 1

 SCF Done:  E(RHF) =  -226.392643611     A.U. after   13 cycles
 SCF Done:  E(RHF) =  -226.392662537     A.U. after   13 cycles
 SCF Done:  E(RHF) =  -226.392695697     A.U. after   12 cycles
 SCF Done:  E(RHF) =  -226.392696181     A.U. after   10 cycles
 SCF Done:  E(RHF) =  -226.392696259     A.U. after    9 cycles
 SCF Done:  E(RHF) =  -226.392696262     A.U. after    8 cycles
 SCF Done:  E(RHF) =  -226.392696263     A.U. after    6 cycles
 Optimization completed.
    -- Stationary point found.

                          Input orientation:
 ---------------------------------------------------------------------
 Center     Atomic      Atomic             Coordinates (Angstroms)
 Number     Number       Type             X           Y           Z
 ---------------------------------------------------------------------
      1          6           0        0.741690    0.572951    0.026237
      2          6           0        1.434071   -0.537073   -0.044102
      3          1           0        1.172111    1.550618    0.087273
      4          1           0        2.503051   -0.498747   -0.032205
      5          1           0        0.968281   -1.493565   -0.147962
      6          8           0       -0.648365    0.699920    0.039729
      7          8           0       -1.298018   -0.594815    0.199875
      8          1           0       -0.950156   -0.903385    1.058962
 ---------------------------------------------------------------------

 Alpha  occ. eigenvalues --  -20.54665 -20.53476 -11.25545 -11.17376  -1.48866
 Alpha  occ. eigenvalues --   -1.24478  -1.04449  -0.80801  -0.71524  -0.69057
 Alpha  occ. eigenvalues --   -0.64915  -0.56935  -0.56014  -0.52731  -0.48811
 Alpha  occ. eigenvalues --   -0.37205
 Alpha virt. eigenvalues --    0.18383   0.22347   0.28090   0.28947   0.32634
 Alpha virt. eigenvalues --    0.36768   0.49371   0.58000   0.88042   0.96440
 Alpha virt. eigenvalues --    0.99977   1.05893   1.09039   1.11036   1.24554

 Mulliken charges:
               1
     1  C    0.134656
     2  C   -0.525763
     3  H    0.266994
     4  H    0.230221
     5  H    0.240229
     6  O   -0.390108
     7  O   -0.363800
     8  H    0.407570
 Sum of Mulliken charges =   0.00000

 Dipole moment (field-independent basis, Debye):
    X=              2.3054    Y=             -0.6750    Z=              1.7508  Tot=              2.9725
 Quadrupole moment (field-independent basis, Debye-Ang):
   XX=            -24.8169   YY=            -21.3204   ZZ=            -23.3608
   XY=              1.8925   XZ=             -1.5737   YZ=             -1.5802

 Normal termination of Gaussian 09 at Fri Apr 12 17:45:51 2019.
