 Gaussian 09, Revision D.01,
 Gaussian 09:  AS64L-G09RevD.01 24-Apr-2013

 --------------------------------------------------------------------
 #p hf 3-21g scf=tight NoSymmetry guess=read opt=(tight,modredundant)
 --------------------------------------------------------------------

 -----------------------------------
 Geometry optimization at the 2D-PES
 -----------------------------------
 Symbolic Z-matrix:
 Charge =  0 Multiplicity = 1

 SCF Done:  E(RHF) =  -226.389417660     A.U. after   12 cycles
 SCF Done:  E(RHF) =  -226.389445401     A.U. after   13 cycles
 SCF Done:  E(RHF) =  -226.389466764     A.U. after   11 cycles
 SCF Done:  E(RHF) =  -226.389466960     A.U. after    9 cycles
 SCF Done:  E(RHF) =  -226.389466996     A.U. after    8 cycles
 SCF Done:  E(RHF) =  -226.389467001     A.U. after    7 cycles
 Optimization completed.
    -- Stationary point found.

                          Input orientation:
 ---------------------------------------------------------------------
 Center     Atomic      Atomic             Coordinates (Angstroms)
 Number     Number       Type             X           Y           Z
 ---------------------------------------------------------------------
      1          6           0        0.741499    0.577453    0.071636
      2          6           0        1.429509   -0.531142   -0.036256
      3          1           0        1.188058    1.549574    0.089258
      4          1           0        2.498348   -0.493814   -0.069785
      5          1           0        0.977540   -1.501410   -0.046968
      6          8           0       -0.654918    0.702854    0.054127
      7          8           0       -1.295469   -0.377412    0.799209
      8          1           0       -1.276032   -1.112850    0.161519
 ---------------------------------------------------------------------

 Alpha  occ. eigenvalues --  -20.53881 -20.53103 -11.25102 -11.17779  -1.48059
 Alpha  occ. eigenvalues --   -1.24091  -1.04323  -0.80189  -0.71841  -0.68026
 Alpha  occ. eigenvalues --   -0.65844  -0.57544  -0.54694  -0.51524  -0.48662
 Alpha  occ. eigenvalues --   -0.37476
 Alpha virt. eigenvalues --    0.16594   0.22772   0.28287   0.28775   0.34196
 Alpha virt. eigenvalues --    0.36880   0.49895   0.57716   0.88237   0.96291
 Alpha virt. eigenvalues --    0.98592   1.06141   1.09295   1.11370   1.25268

 Mulliken charges:
               1
     1  C    0.146824
     2  C   -0.497741
     3  H    0.261127
     4  H    0.234102
     5  H    0.213632
     6  O   -0.400888
     7  O   -0.365874
     8  H    0.408817
 Sum of Mulliken charges =   0.00000

 Dipole moment (field-independent basis, Debye):
    X=              1.7738    Y=             -1.6089    Z=             -1.1029  Tot=              2.6366
 Quadrupole moment (field-independent basis, Debye-Ang):
   XX=            -23.0446   YY=            -19.9522   ZZ=            -26.9686
   XY=              3.6880   XZ=              1.7281   YZ=              0.5865

 Normal termination of Gaussian 09 at Fri Apr 12 17:15:06 2019.
