 Gaussian 09, Revision D.01,
 Gaussian 09:  AS64L-G09RevD.01 24-Apr-2013

 --------------------------------------------------------------------
 #p hf 3-21g scf=tight NoSymmetry guess=read opt=(tight,modredundant)
 --------------------------------------------------------------------

 -----------------------------------
 Geometry optimization at the 2D-PES
 -----------------------------------
 Symbolic Z-matrix:
 Charge =  0 Multiplicity = 1

 SCF Done:  E(RHF) =  -226.392726802     A.U. after   13 cycles
 SCF Done:  E(RHF) =  -226.392730594     A.U. after   11 cycles
 SCF Done:  E(RHF) =  -226.392733204     A.U. after   10 cycles
 SCF Done:  E(RHF) =  -226.392733246     A.U. after    8 cycles
 SCF Done:  E(RHF) =  -226.392733250     A.U. after    6 cycles
 Optimization completed.
    -- Stationary point found.

                          Input orientation:
 ---------------------------------------------------------------------
 Center     Atomic      Atomic             Coordinates (Angstroms)
 Number     Number       Type             X           Y           Z
 ---------------------------------------------------------------------
      1          6           0        0.726808    0.623559    0.039149
      2          6           0        1.371179   -0.513389   -0.002339
      3          1           0        1.196357    1.581168    0.124214
      4          1           0        2.441674   -0.538109    0.017418
      5          1           0        0.843127   -1.443028   -0.062482
      6          8           0       -0.679868    0.670072   -0.025149
      7          8           0       -1.156677    0.593598    1.371536
      8          1           0       -1.979411    1.105172    1.284919
 ---------------------------------------------------------------------

 Alpha  occ. eigenvalues --  -20.52141 -20.51447 -11.23499 -11.17611  -1.45899
 Alpha  occ. eigenvalues --   -1.22839  -1.03025  -0.79068  -0.69827  -0.66834
 Alpha  occ. eigenvalues --   -0.64543  -0.57670  -0.55045  -0.50639  -0.43820
 Alpha  occ. eigenvalues --   -0.38404
 Alpha virt. eigenvalues --    0.15549   0.27592   0.29219   0.30834   0.32157
 Alpha virt. eigenvalues --    0.36535   0.49478   0.56883   0.88981   0.97618
 Alpha virt. eigenvalues --    0.98999   1.07229   1.10523   1.12707   1.23150

 Mulliken charges:
               1
     1  C    0.136544
     2  C   -0.447792
     3  H    0.232353
     4  H    0.226246
     5  H    0.249636
     6  O   -0.417863
     7  O   -0.391589
     8  H    0.412466
 Sum of Mulliken charges =   0.00000

 Dipole moment (field-independent basis, Debye):
    X=              0.3383    Y=              0.7815    Z=              0.1321  Tot=              0.8618
 Quadrupole moment (field-independent basis, Debye-Ang):
   XX=            -17.2199   YY=            -20.2806   ZZ=            -26.1175
   XY=             -2.2912   XZ=             -2.1545   YZ=              1.7426

 Normal termination of Gaussian 09 at Fri Apr 12 16:39:11 2019.
