 Gaussian 09, Revision D.01,
 Gaussian 09:  AS64L-G09RevD.01 24-Apr-2013

 --------------------------------------------------------------------
 #p hf 3-21g scf=tight NoSymmetry guess=read opt=(tight,modredundant)
 --------------------------------------------------------------------

 -----------------------------------
 Geometry optimization at the 2D-PES
 -----------------------------------
 Symbolic Z-matrix:
 Charge =  0 Multiplicity = 1

 SCF Done:  E(RHF) =  -226.386530320     A.U. after   13 cycles
 SCF Done:  E(RHF) =  -226.386558440     A.U. after   12 cycles
 SCF Done:  E(RHF) =  -226.386583336     A.U. after   12 cycles
 SCF Done:  E(RHF) =  -226.386583544     A.U. after    9 cycles
 SCF Done:  E(RHF) =  -226.386583581     A.U. after    9 cycles
 SCF Done:  E(RHF) =  -226.386583583     A.U. after    6 cycles
 Optimization completed.
    -- Stationary point found.

                          Input orientation:
 ---------------------------------------------------------------------
 Center     Atomic      Atomic             Coordinates (Angstroms)
 Number     Number       Type             X           Y           Z
 ---------------------------------------------------------------------
      1          6           0        0.750381    0.634677    0.042896
      2          6           0        1.377520   -0.512711   -0.004146
      3          1           0        1.240213    1.583822    0.112690
      4          1           0        2.447173   -0.545507   -0.003913
      5          1           0        0.840999   -1.438321   -0.046372
      6          8           0       -0.652584    0.690360    0.004044
      7          8           0       -1.105425    2.046284    0.307370
      8          1           0       -0.693238    2.580228   -0.396963
 ---------------------------------------------------------------------

 Alpha  occ. eigenvalues --  -20.54140 -20.53408 -11.25301 -11.17276  -1.48376
 Alpha  occ. eigenvalues --   -1.24368  -1.03719  -0.81225  -0.71743  -0.67248
 Alpha  occ. eigenvalues --   -0.65231  -0.57242  -0.54966  -0.53183  -0.48899
 Alpha  occ. eigenvalues --   -0.36629
 Alpha virt. eigenvalues --    0.18250   0.21921   0.25306   0.31400   0.33809
 Alpha virt. eigenvalues --    0.35472   0.50111   0.56776   0.89162   0.96393
 Alpha virt. eigenvalues --    0.99118   1.06122   1.10081   1.10932   1.24456

 Mulliken charges:
               1
     1  C    0.135554
     2  C   -0.497853
     3  H    0.237864
     4  H    0.229244
     5  H    0.247246
     6  O   -0.389157
     7  O   -0.364283
     8  H    0.401384
 Sum of Mulliken charges =   0.00000

 Dipole moment (field-independent basis, Debye):
    X=              2.5940    Y=              1.3033    Z=             -1.3348  Tot=              3.1952
 Quadrupole moment (field-independent basis, Debye-Ang):
   XX=            -24.6254   YY=            -16.5178   ZZ=            -25.5810
   XY=              2.1250   XZ=              1.3067   YZ=             -3.3079

 Normal termination of Gaussian 09 at Fri Apr 12 15:45:07 2019.
