 Gaussian 09, Revision D.01,
 Gaussian 09:  AS64L-G09RevD.01 24-Apr-2013

 --------------------------------------------------------------------
 #p hf 3-21g scf=tight NoSymmetry guess=read opt=(tight,modredundant)
 --------------------------------------------------------------------

 -----------------------------------
 Geometry optimization at the 2D-PES
 -----------------------------------
 Symbolic Z-matrix:
 Charge =  0 Multiplicity = 1

 SCF Done:  E(RHF) =  -226.390568816     A.U. after   13 cycles
 SCF Done:  E(RHF) =  -226.390577463     A.U. after   12 cycles
 SCF Done:  E(RHF) =  -226.390585552     A.U. after   10 cycles
 SCF Done:  E(RHF) =  -226.390585608     A.U. after    9 cycles
 SCF Done:  E(RHF) =  -226.390585622     A.U. after    8 cycles
 SCF Done:  E(RHF) =  -226.390585623     A.U. after    7 cycles
 Optimization completed.
    -- Stationary point found.

                          Input orientation:
 ---------------------------------------------------------------------
 Center     Atomic      Atomic             Coordinates (Angstroms)
 Number     Number       Type             X           Y           Z
 ---------------------------------------------------------------------
      1          6           0        0.726113    0.634742    0.032232
      2          6           0        1.373486   -0.502307   -0.022326
      3          1           0        1.185215    1.599658    0.058667
      4          1           0        2.443855   -0.525152   -0.001692
      5          1           0        0.849121   -1.436476   -0.053147
      6          8           0       -0.684544    0.654875    0.051136
      7          8           0       -1.116350    1.196324   -1.246904
      8          1           0       -0.880004    0.472280   -1.856146
 ---------------------------------------------------------------------

 Alpha  occ. eigenvalues --  -20.53178 -20.52248 -11.24703 -11.18802  -1.47186
 Alpha  occ. eigenvalues --   -1.23369  -1.04308  -0.80377  -0.72450  -0.65636
 Alpha  occ. eigenvalues --   -0.63623  -0.60165  -0.56100  -0.49619  -0.46203
 Alpha  occ. eigenvalues --   -0.39413
 Alpha virt. eigenvalues --    0.15212   0.25635   0.27607   0.30523   0.31549
 Alpha virt. eigenvalues --    0.35750   0.48729   0.55817   0.88308   0.96456
 Alpha virt. eigenvalues --    0.98180   1.05967   1.09188   1.10700   1.24302

 Mulliken charges:
               1
     1  C    0.108823
     2  C   -0.469987
     3  H    0.249257
     4  H    0.233760
     5  H    0.244332
     6  O   -0.387763
     7  O   -0.378915
     8  H    0.400493
 Sum of Mulliken charges =   0.00000

 Dipole moment (field-independent basis, Debye):
    X=              2.5007    Y=             -1.5477    Z=             -1.3786  Tot=              3.2480
 Quadrupole moment (field-independent basis, Debye-Ang):
   XX=            -23.9961   YY=            -24.4286   ZZ=            -21.6206
   XY=              3.0657   XZ=              0.8013   YZ=              1.4370

 Normal termination of Gaussian 09 at Fri Apr 12 15:12:28 2019.
