 Gaussian 09, Revision D.01,
 Gaussian 09:  AS64L-G09RevD.01 24-Apr-2013

 --------------------------------------------------------------------
 #p hf 3-21g scf=tight NoSymmetry guess=read opt=(tight,modredundant)
 --------------------------------------------------------------------

 -----------------------------------
 Geometry optimization at the 2D-PES
 -----------------------------------
 Symbolic Z-matrix:
 Charge =  0 Multiplicity = 1

 SCF Done:  E(RHF) =  -226.381121076     A.U. after   13 cycles
 SCF Done:  E(RHF) =  -226.381128489     A.U. after   11 cycles
 SCF Done:  E(RHF) =  -226.381131331     A.U. after   10 cycles
 SCF Done:  E(RHF) =  -226.381131417     A.U. after    8 cycles
 SCF Done:  E(RHF) =  -226.381131419     A.U. after    7 cycles
 Optimization completed.
    -- Stationary point found.

                          Input orientation:
 ---------------------------------------------------------------------
 Center     Atomic      Atomic             Coordinates (Angstroms)
 Number     Number       Type             X           Y           Z
 ---------------------------------------------------------------------
      1          6           0        0.746168    0.630023    0.032711
      2          6           0        1.391921   -0.508706   -0.005038
      3          1           0        1.219023    1.589760    0.092124
      4          1           0        2.461948   -0.534964    0.035206
      5          1           0        0.861745   -1.438242   -0.055017
      6          8           0       -0.663601    0.665729    0.035337
      7          8           0       -1.164360    0.964819   -1.326762
      8          1           0       -0.358641    1.057922   -1.868469
 ---------------------------------------------------------------------

 Alpha  occ. eigenvalues --  -20.52793 -20.51798 -11.25032 -11.19655  -1.46235
 Alpha  occ. eigenvalues --   -1.23390  -1.04889  -0.81393  -0.71572  -0.67667
 Alpha  occ. eigenvalues --   -0.60267  -0.59108  -0.56992  -0.52617  -0.43993
 Alpha  occ. eigenvalues --   -0.39918
 Alpha virt. eigenvalues --    0.13516   0.26609   0.27551   0.29412   0.30897
 Alpha virt. eigenvalues --    0.35840   0.49016   0.55282   0.87310   0.96507
 Alpha virt. eigenvalues --    0.97577   1.05309   1.08660   1.11221   1.24233

 Mulliken charges:
               1
     1  C    0.059429
     2  C   -0.442311
     3  H    0.241713
     4  H    0.234904
     5  H    0.259941
     6  O   -0.375682
     7  O   -0.375857
     8  H    0.397862
 Sum of Mulliken charges =   0.00000

 Dipole moment (field-independent basis, Debye):
    X=              3.7635    Y=             -0.1945    Z=             -1.1707  Tot=              3.9461
 Quadrupole moment (field-independent basis, Debye-Ang):
   XX=            -25.2299   YY=            -21.7266   ZZ=            -21.9600
   XY=              2.4513   XZ=             -1.5730   YZ=             -1.3898

 Normal termination of Gaussian 09 at Fri Apr 12 15:09:57 2019.
