 Gaussian 09, Revision D.01,
 Gaussian 09:  AS64L-G09RevD.01 24-Apr-2013

 --------------------------------------------------------------------
 #p hf 3-21g scf=tight NoSymmetry guess=read opt=(tight,modredundant)
 --------------------------------------------------------------------

 -----------------------------------
 Geometry optimization at the 2D-PES
 -----------------------------------
 Symbolic Z-matrix:
 Charge =  0 Multiplicity = 1

 SCF Done:  E(RHF) =  -226.378039690     A.U. after   13 cycles
 SCF Done:  E(RHF) =  -226.378048343     A.U. after   12 cycles
 SCF Done:  E(RHF) =  -226.378061456     A.U. after   11 cycles
 SCF Done:  E(RHF) =  -226.378061535     A.U. after    9 cycles
 SCF Done:  E(RHF) =  -226.378061553     A.U. after    8 cycles
 SCF Done:  E(RHF) =  -226.378061554     A.U. after    6 cycles
 Optimization completed.
    -- Stationary point found.

                          Input orientation:
 ---------------------------------------------------------------------
 Center     Atomic      Atomic             Coordinates (Angstroms)
 Number     Number       Type             X           Y           Z
 ---------------------------------------------------------------------
      1          6           0        0.769052    0.628579    0.038263
      2          6           0        1.384863   -0.525290   -0.004494
      3          1           0        1.287267    1.565531    0.101756
      4          1           0        2.453811   -0.569421    0.013711
      5          1           0        0.838058   -1.444045   -0.058216
      6          8           0       -0.629179    0.700004    0.017073
      7          8           0       -1.135488    2.074964    0.072010
      8          1           0       -0.355360    2.645284   -0.051037
 ---------------------------------------------------------------------

 Alpha  occ. eigenvalues --  -20.54217 -20.53387 -11.26078 -11.17600  -1.48098
 Alpha  occ. eigenvalues --   -1.24803  -1.04201  -0.82256  -0.72042  -0.66926
 Alpha  occ. eigenvalues --   -0.64147  -0.58792  -0.55323  -0.52872  -0.49401
 Alpha  occ. eigenvalues --   -0.36428
 Alpha virt. eigenvalues --    0.18090   0.21625   0.23194   0.30995   0.34083
 Alpha virt. eigenvalues --    0.35977   0.51890   0.56364   0.88783   0.95762
 Alpha virt. eigenvalues --    0.99148   1.05494   1.09864   1.11237   1.22793

 Mulliken charges:
               1
     1  C    0.129610
     2  C   -0.493709
     3  H    0.225794
     4  H    0.230728
     5  H    0.250696
     6  O   -0.383759
     7  O   -0.358977
     8  H    0.399618
 Sum of Mulliken charges =   0.00000

 Dipole moment (field-independent basis, Debye):
    X=              3.3273    Y=              1.2987    Z=             -0.2053  Tot=              3.5777
 Quadrupole moment (field-independent basis, Debye-Ang):
   XX=            -25.3164   YY=            -16.1220   ZZ=            -25.8405
   XY=              4.0509   XZ=              0.3101   YZ=             -0.3983

 Normal termination of Gaussian 09 at Fri Apr 12 15:42:29 2019.
