 Gaussian 09, Revision D.01,
 Gaussian 09:  AS64L-G09RevD.01 24-Apr-2013

 --------------------------------------------------------------------
 #p hf 3-21g scf=tight NoSymmetry guess=read opt=(tight,modredundant)
 --------------------------------------------------------------------

 -----------------------------------
 Geometry optimization at the 2D-PES
 -----------------------------------
 Symbolic Z-matrix:
 Charge =  0 Multiplicity = 1

 SCF Done:  E(RHF) =  -226.393526422     A.U. after   13 cycles
 SCF Done:  E(RHF) =  -226.393529988     A.U. after   11 cycles
 SCF Done:  E(RHF) =  -226.393531543     A.U. after   10 cycles
 SCF Done:  E(RHF) =  -226.393531590     A.U. after    8 cycles
 SCF Done:  E(RHF) =  -226.393531594     A.U. after    7 cycles
 Optimization completed.
    -- Stationary point found.

                          Input orientation:
 ---------------------------------------------------------------------
 Center     Atomic      Atomic             Coordinates (Angstroms)
 Number     Number       Type             X           Y           Z
 ---------------------------------------------------------------------
      1          6           0        0.726234    0.627920    0.045250
      2          6           0        1.370222   -0.510248    0.004045
      3          1           0        1.191115    1.586684    0.128545
      4          1           0        2.440743   -0.534035    0.009201
      5          1           0        0.845186   -1.441704   -0.060108
      6          8           0       -0.679403    0.666745   -0.025101
      7          8           0       -1.138972    1.074965    1.316221
      8          1           0       -1.804093    0.384021    1.476258
 ---------------------------------------------------------------------

 Alpha  occ. eigenvalues --  -20.52625 -20.51762 -11.23962 -11.17797  -1.46481
 Alpha  occ. eigenvalues --   -1.23174  -1.03317  -0.79460  -0.70609  -0.66964
 Alpha  occ. eigenvalues --   -0.63243  -0.59866  -0.55842  -0.49056  -0.45311
 Alpha  occ. eigenvalues --   -0.38493
 Alpha virt. eigenvalues --    0.15928   0.26628   0.28637   0.31103   0.31951
 Alpha virt. eigenvalues --    0.36086   0.49283   0.56705   0.89044   0.97159
 Alpha virt. eigenvalues --    0.98589   1.07037   1.10077   1.12818   1.22825

 Mulliken charges:
               1
     1  C    0.147308
     2  C   -0.467761
     3  H    0.244150
     4  H    0.228998
     5  H    0.237973
     6  O   -0.413223
     7  O   -0.391224
     8  H    0.413780
 Sum of Mulliken charges =   0.00000

 Dipole moment (field-independent basis, Debye):
    X=              0.6019    Y=             -1.5499    Z=              0.6303  Tot=              1.7782
 Quadrupole moment (field-independent basis, Debye-Ang):
   XX=            -18.6578   YY=            -24.1907   ZZ=            -24.6522
   XY=              2.5167   XZ=             -2.7182   YZ=             -1.4746

 Normal termination of Gaussian 09 at Fri Apr 12 16:26:29 2019.
