 Gaussian 09, Revision D.01,
 Gaussian 09:  AS64L-G09RevD.01 24-Apr-2013

 --------------------------------------------------------------------
 #p hf 3-21g scf=tight NoSymmetry guess=read opt=(tight,modredundant)
 --------------------------------------------------------------------

 -----------------------------------
 Geometry optimization at the 2D-PES
 -----------------------------------
 Symbolic Z-matrix:
 Charge =  0 Multiplicity = 1

 SCF Done:  E(RHF) =  -226.386380904     A.U. after   12 cycles
 SCF Done:  E(RHF) =  -226.386391205     A.U. after   12 cycles
 SCF Done:  E(RHF) =  -226.386402180     A.U. after   11 cycles
 SCF Done:  E(RHF) =  -226.386402224     A.U. after    9 cycles
 SCF Done:  E(RHF) =  -226.386402230     A.U. after    8 cycles
 Optimization completed.
    -- Stationary point found.

                          Input orientation:
 ---------------------------------------------------------------------
 Center     Atomic      Atomic             Coordinates (Angstroms)
 Number     Number       Type             X           Y           Z
 ---------------------------------------------------------------------
      1          6           0        0.728553    0.612861    0.025119
      2          6           0        1.393675   -0.514751   -0.005295
      3          1           0        1.193083    1.575164    0.069058
      4          1           0        2.463935   -0.515278    0.015937
      5          1           0        0.903522   -1.468599   -0.031161
      6          8           0       -0.682400    0.678131    0.017685
      7          8           0       -1.187434    0.268316   -1.299996
      8          1           0       -0.994910   -0.685670   -1.309931
 ---------------------------------------------------------------------

 Alpha  occ. eigenvalues --  -20.52987 -20.52386 -11.24976 -11.18938  -1.47020
 Alpha  occ. eigenvalues --   -1.23381  -1.04716  -0.80299  -0.72341  -0.66171
 Alpha  occ. eigenvalues --   -0.65006  -0.58948  -0.55906  -0.49712  -0.46855
 Alpha  occ. eigenvalues --   -0.39049
 Alpha virt. eigenvalues --    0.14646   0.23414   0.28315   0.29686   0.33024
 Alpha virt. eigenvalues --    0.36409   0.49914   0.55917   0.87818   0.96033
 Alpha virt. eigenvalues --    0.98365   1.05658   1.08781   1.10908   1.25379

 Mulliken charges:
               1
     1  C    0.129360
     2  C   -0.479127
     3  H    0.252008
     4  H    0.238268
     5  H    0.224179
     6  O   -0.396442
     7  O   -0.369867
     8  H    0.401621
 Sum of Mulliken charges =   0.00000

 Dipole moment (field-independent basis, Debye):
    X=              2.4075    Y=             -2.0531    Z=             -0.2110  Tot=              3.1711
 Quadrupole moment (field-independent basis, Debye-Ang):
   XX=            -23.7413   YY=            -21.1727   ZZ=            -25.5975
   XY=              3.4556   XZ=             -0.2140   YZ=              2.6424

 Normal termination of Gaussian 09 at Fri Apr 12 15:01:32 2019.
