 Gaussian 09, Revision D.01,
 Gaussian 09:  AS64L-G09RevD.01 24-Apr-2013

 --------------------------------------------------------------------
 #p hf 3-21g scf=tight NoSymmetry guess=read opt=(tight,modredundant)
 --------------------------------------------------------------------

 -----------------------------------
 Geometry optimization at the 2D-PES
 -----------------------------------
 Symbolic Z-matrix:
 Charge =  0 Multiplicity = 1

 SCF Done:  E(RHF) =  -226.392270483     A.U. after   13 cycles
 SCF Done:  E(RHF) =  -226.392271330     A.U. after   11 cycles
 SCF Done:  E(RHF) =  -226.392272088     A.U. after   10 cycles
 SCF Done:  E(RHF) =  -226.392272097     A.U. after    7 cycles
 SCF Done:  E(RHF) =  -226.392272098     A.U. after    6 cycles
 Optimization completed.
    -- Stationary point found.

                          Input orientation:
 ---------------------------------------------------------------------
 Center     Atomic      Atomic             Coordinates (Angstroms)
 Number     Number       Type             X           Y           Z
 ---------------------------------------------------------------------
      1          6           0        0.727261    0.619651    0.041470
      2          6           0        1.375577   -0.514800   -0.007383
      3          1           0        1.196212    1.578319    0.118757
      4          1           0        2.446148   -0.534759    0.013008
      5          1           0        0.852525   -1.447469   -0.064235
      6          8           0       -0.679138    0.674944   -0.016348
      7          8           0       -1.168224    0.351292    1.340770
      8          1           0       -2.060951    0.732258    1.275636
 ---------------------------------------------------------------------

 Alpha  occ. eigenvalues --  -20.52050 -20.51434 -11.23463 -11.17531  -1.45795
 Alpha  occ. eigenvalues --   -1.22804  -1.03004  -0.78946  -0.69977  -0.66534
 Alpha  occ. eigenvalues --   -0.64358  -0.58047  -0.54907  -0.50771  -0.43688
 Alpha  occ. eigenvalues --   -0.38216
 Alpha virt. eigenvalues --    0.15519   0.27523   0.29391   0.30662   0.32163
 Alpha virt. eigenvalues --    0.36775   0.49709   0.56924   0.88963   0.97660
 Alpha virt. eigenvalues --    0.99054   1.07173   1.10511   1.12496   1.23519

 Mulliken charges:
               1
     1  C    0.135695
     2  C   -0.447175
     3  H    0.234686
     4  H    0.225976
     5  H    0.249299
     6  O   -0.420789
     7  O   -0.391056
     8  H    0.413364
 Sum of Mulliken charges =   0.00000

 Dipole moment (field-independent basis, Debye):
    X=              0.1842    Y=              0.4668    Z=              0.1850  Tot=              0.5349
 Quadrupole moment (field-independent basis, Debye-Ang):
   XX=            -16.5078   YY=            -21.3438   ZZ=            -25.9649
   XY=             -1.3350   XZ=             -2.3908   YZ=              1.4108

 Normal termination of Gaussian 09 at Fri Apr 12 16:45:39 2019.
