 Gaussian 09, Revision D.01,
 Gaussian 09:  AS64L-G09RevD.01 24-Apr-2013

 --------------------------------------------------------------------
 #p hf 3-21g scf=tight NoSymmetry guess=read opt=(tight,modredundant)
 --------------------------------------------------------------------

 -----------------------------------
 Geometry optimization at the 2D-PES
 -----------------------------------
 Symbolic Z-matrix:
 Charge =  0 Multiplicity = 1

 SCF Done:  E(RHF) =  -226.388666932     A.U. after   13 cycles
 SCF Done:  E(RHF) =  -226.388681562     A.U. after   13 cycles
 SCF Done:  E(RHF) =  -226.388696545     A.U. after   12 cycles
 SCF Done:  E(RHF) =  -226.388696624     A.U. after    9 cycles
 SCF Done:  E(RHF) =  -226.388696640     A.U. after    8 cycles
 SCF Done:  E(RHF) =  -226.388696641     A.U. after    6 cycles
 Optimization completed.
    -- Stationary point found.

                          Input orientation:
 ---------------------------------------------------------------------
 Center     Atomic      Atomic             Coordinates (Angstroms)
 Number     Number       Type             X           Y           Z
 ---------------------------------------------------------------------
      1          6           0        0.743481    0.637049    0.018964
      2          6           0        1.376216   -0.508072   -0.015949
      3          1           0        1.214517    1.593944    0.103608
      4          1           0        2.445277   -0.537844    0.026626
      5          1           0        0.844913   -1.435982   -0.075667
      6          8           0       -0.660921    0.680118    0.045683
      7          8           0       -1.098082    2.005617   -0.393540
      8          1           0       -0.734136    2.071048   -1.296099
 ---------------------------------------------------------------------

 Alpha  occ. eigenvalues --  -20.54029 -20.53168 -11.25026 -11.17649  -1.48210
 Alpha  occ. eigenvalues --   -1.24178  -1.03806  -0.80922  -0.72446  -0.65890
 Alpha  occ. eigenvalues --   -0.65105  -0.58631  -0.54997  -0.52452  -0.48209
 Alpha  occ. eigenvalues --   -0.37147
 Alpha virt. eigenvalues --    0.16776   0.23323   0.26894   0.31223   0.33027
 Alpha virt. eigenvalues --    0.35426   0.49291   0.56709   0.89069   0.96496
 Alpha virt. eigenvalues --    0.99003   1.06185   1.09829   1.10539   1.25006

 Mulliken charges:
               1
     1  C    0.115462
     2  C   -0.493418
     3  H    0.252893
     4  H    0.230816
     5  H    0.246866
     6  O   -0.385109
     7  O   -0.370175
     8  H    0.402665
 Sum of Mulliken charges =   0.00000

 Dipole moment (field-independent basis, Debye):
    X=              2.5473    Y=              0.3010    Z=             -1.8987  Tot=              3.1913
 Quadrupole moment (field-independent basis, Debye-Ang):
   XX=            -24.4720   YY=            -21.2559   ZZ=            -22.3530
   XY=              2.5631   XZ=              1.4033   YZ=             -3.9070

 Normal termination of Gaussian 09 at Fri Apr 12 15:31:55 2019.
