 Gaussian 09, Revision D.01,
 Gaussian 09:  AS64L-G09RevD.01 24-Apr-2013

 --------------------------------------------------------------------
 #p hf 3-21g scf=tight NoSymmetry guess=read opt=(tight,modredundant)
 --------------------------------------------------------------------

 -----------------------------------
 Geometry optimization at the 2D-PES
 -----------------------------------
 Symbolic Z-matrix:
 Charge =  0 Multiplicity = 1

 SCF Done:  E(RHF) =  -226.380887963     A.U. after   13 cycles
 SCF Done:  E(RHF) =  -226.380891052     A.U. after   11 cycles
 SCF Done:  E(RHF) =  -226.380891651     A.U. after    9 cycles
 SCF Done:  E(RHF) =  -226.380891674     A.U. after    8 cycles
 SCF Done:  E(RHF) =  -226.380891679     A.U. after    6 cycles
 Optimization completed.
    -- Stationary point found.

                          Input orientation:
 ---------------------------------------------------------------------
 Center     Atomic      Atomic             Coordinates (Angstroms)
 Number     Number       Type             X           Y           Z
 ---------------------------------------------------------------------
      1          6           0        0.764142    0.626873    0.059031
      2          6           0        1.386138   -0.522839    0.002554
      3          1           0        1.262167    1.577573    0.076635
      4          1           0        2.455265   -0.566624   -0.034652
      5          1           0        0.836795   -1.441366   -0.028274
      6          8           0       -0.636563    0.691791   -0.012311
      7          8           0       -1.179959    1.516607    1.084823
      8          1           0       -0.403240    1.942763    1.491793
 ---------------------------------------------------------------------

 Alpha  occ. eigenvalues --  -20.53493 -20.52343 -11.25344 -11.18854  -1.46987
 Alpha  occ. eigenvalues --   -1.24015  -1.04485  -0.81825  -0.71479  -0.67768
 Alpha  occ. eigenvalues --   -0.61585  -0.59239  -0.56259  -0.52580  -0.46283
 Alpha  occ. eigenvalues --   -0.38245
 Alpha virt. eigenvalues --    0.14690   0.25049   0.26102   0.30275   0.32797
 Alpha virt. eigenvalues --    0.35191   0.49635   0.55806   0.88010   0.95939
 Alpha virt. eigenvalues --    0.98946   1.06033   1.09441   1.11004   1.23891

 Mulliken charges:
               1
     1  C    0.088403
     2  C   -0.461084
     3  H    0.231879
     4  H    0.232688
     5  H    0.257267
     6  O   -0.375369
     7  O   -0.371692
     8  H    0.397909
 Sum of Mulliken charges =   0.00000

 Dipole moment (field-independent basis, Debye):
    X=              3.5478    Y=              0.5732    Z=              0.9513  Tot=              3.7176
 Quadrupole moment (field-independent basis, Debye-Ang):
   XX=            -25.2679   YY=            -19.0577   ZZ=            -23.4927
   XY=              3.0693   XZ=              1.2336   YZ=              2.9342

 Normal termination of Gaussian 09 at Fri Apr 12 16:06:45 2019.
