 Gaussian 09, Revision D.01,
 Gaussian 09:  AS64L-G09RevD.01 24-Apr-2013

 --------------------------------------------------------------------
 #p hf 3-21g scf=tight NoSymmetry guess=read opt=(tight,modredundant)
 --------------------------------------------------------------------

 -----------------------------------
 Geometry optimization at the 2D-PES
 -----------------------------------
 Symbolic Z-matrix:
 Charge =  0 Multiplicity = 1

 SCF Done:  E(RHF) =  -226.393812628     A.U. after   13 cycles
 SCF Done:  E(RHF) =  -226.393818249     A.U. after   11 cycles
 SCF Done:  E(RHF) =  -226.393822309     A.U. after   10 cycles
 SCF Done:  E(RHF) =  -226.393822362     A.U. after    8 cycles
 SCF Done:  E(RHF) =  -226.393822369     A.U. after    7 cycles
 Optimization completed.
    -- Stationary point found.

                          Input orientation:
 ---------------------------------------------------------------------
 Center     Atomic      Atomic             Coordinates (Angstroms)
 Number     Number       Type             X           Y           Z
 ---------------------------------------------------------------------
      1          6           0        0.738969    0.587919    0.065030
      2          6           0        1.409172   -0.530906   -0.031593
      3          1           0        1.188560    1.559580    0.083580
      4          1           0        2.479450   -0.515883   -0.051572
      5          1           0        0.913828   -1.478513   -0.055498
      6          8           0       -0.659971    0.706668    0.043578
      7          8           0       -1.250963   -0.391806    0.812688
      8          1           0       -1.727950    0.115115    1.491775
 ---------------------------------------------------------------------

 Alpha  occ. eigenvalues --  -20.53171 -20.52367 -11.23971 -11.16601  -1.47220
 Alpha  occ. eigenvalues --   -1.23450  -1.03042  -0.79407  -0.70832  -0.66463
 Alpha  occ. eigenvalues --   -0.62608  -0.61497  -0.54729  -0.49097  -0.47527
 Alpha  occ. eigenvalues --   -0.36667
 Alpha virt. eigenvalues --    0.17384   0.24838   0.29072   0.30215   0.33194
 Alpha virt. eigenvalues --    0.37192   0.50023   0.57957   0.88823   0.97055
 Alpha virt. eigenvalues --    1.00476   1.07007   1.10496   1.12903   1.22668

 Mulliken charges:
               1
     1  C    0.133195
     2  C   -0.480266
     3  H    0.248838
     4  H    0.222004
     5  H    0.254669
     6  O   -0.412489
     7  O   -0.382334
     8  H    0.416383
 Sum of Mulliken charges =   0.00000

 Dipole moment (field-independent basis, Debye):
    X=              0.7772    Y=              0.7409    Z=              1.6583  Tot=              1.9756
 Quadrupole moment (field-independent basis, Debye-Ang):
   XX=            -19.9761   YY=            -22.6563   ZZ=            -22.1284
   XY=             -0.1165   XZ=             -3.6324   YZ=              1.3538

 Normal termination of Gaussian 09 at Fri Apr 12 17:19:01 2019.
