 Gaussian 09, Revision D.01,
 Gaussian 09:  AS64L-G09RevD.01 24-Apr-2013

 --------------------------------------------------------------------
 #p hf 3-21g scf=tight NoSymmetry guess=read opt=(tight,modredundant)
 --------------------------------------------------------------------

 -----------------------------------
 Geometry optimization at the 2D-PES
 -----------------------------------
 Symbolic Z-matrix:
 Charge =  0 Multiplicity = 1

 SCF Done:  E(RHF) =  -226.381298389     A.U. after   13 cycles
 SCF Done:  E(RHF) =  -226.381306201     A.U. after   11 cycles
 SCF Done:  E(RHF) =  -226.381309765     A.U. after   10 cycles
 SCF Done:  E(RHF) =  -226.381309873     A.U. after    9 cycles
 SCF Done:  E(RHF) =  -226.381309875     A.U. after    6 cycles
 Optimization completed.
    -- Stationary point found.

                          Input orientation:
 ---------------------------------------------------------------------
 Center     Atomic      Atomic             Coordinates (Angstroms)
 Number     Number       Type             X           Y           Z
 ---------------------------------------------------------------------
      1          6           0        0.740445    0.624682    0.034834
      2          6           0        1.396038   -0.510086   -0.002574
      3          1           0        1.207302    1.586570    0.083850
      4          1           0        2.466665   -0.524748    0.018337
      5          1           0        0.878226   -1.448371   -0.031966
      6          8           0       -0.669541    0.666762    0.027733
      7          8           0       -1.183045    0.491176   -1.350077
      8          1           0       -0.395220    0.229816   -1.862960
 ---------------------------------------------------------------------

 Alpha  occ. eigenvalues --  -20.52733 -20.51898 -11.25329 -11.19777  -1.46329
 Alpha  occ. eigenvalues --   -1.23364  -1.05222  -0.81198  -0.72067  -0.67500
 Alpha  occ. eigenvalues --   -0.60559  -0.59498  -0.56587  -0.52835  -0.44215
 Alpha  occ. eigenvalues --   -0.39946
 Alpha virt. eigenvalues --    0.13559   0.26105   0.27467   0.29254   0.30325
 Alpha virt. eigenvalues --    0.36347   0.49428   0.54805   0.87342   0.96478
 Alpha virt. eigenvalues --    0.97964   1.04377   1.08134   1.11026   1.23209

 Mulliken charges:
               1
     1  C    0.072742
     2  C   -0.458868
     3  H    0.248412
     4  H    0.237618
     5  H    0.255830
     6  O   -0.380509
     7  O   -0.372862
     8  H    0.397637
 Sum of Mulliken charges =   0.00000

 Dipole moment (field-independent basis, Debye):
    X=              3.7103    Y=             -0.8221    Z=             -1.1211  Tot=              3.9622
 Quadrupole moment (field-independent basis, Debye-Ang):
   XX=            -25.2889   YY=            -22.4803   ZZ=            -22.1102
   XY=              2.0482   XZ=             -1.5421   YZ=              0.5634

 Normal termination of Gaussian 09 at Fri Apr 12 15:03:35 2019.
