 Gaussian 09, Revision D.01,
 Gaussian 09:  AS64L-G09RevD.01 24-Apr-2013

 --------------------------------------------------------------------
 #p hf 3-21g scf=tight NoSymmetry guess=read opt=(tight,modredundant)
 --------------------------------------------------------------------

 -----------------------------------
 Geometry optimization at the 2D-PES
 -----------------------------------
 Symbolic Z-matrix:
 Charge =  0 Multiplicity = 1

 SCF Done:  E(RHF) =  -226.385692906     A.U. after   13 cycles
 SCF Done:  E(RHF) =  -226.385699894     A.U. after   12 cycles
 SCF Done:  E(RHF) =  -226.385708190     A.U. after   11 cycles
 SCF Done:  E(RHF) =  -226.385708230     A.U. after    9 cycles
 SCF Done:  E(RHF) =  -226.385708236     A.U. after    8 cycles
 Optimization completed.
    -- Stationary point found.

                          Input orientation:
 ---------------------------------------------------------------------
 Center     Atomic      Atomic             Coordinates (Angstroms)
 Number     Number       Type             X           Y           Z
 ---------------------------------------------------------------------
      1          6           0        0.748632    0.605677    0.048645
      2          6           0        1.405271   -0.524383   -0.022607
      3          1           0        1.210140    1.571402    0.075427
      4          1           0        2.476066   -0.534188   -0.025865
      5          1           0        0.888373   -1.461621   -0.063204
      6          8           0       -0.661118    0.691030    0.019991
      7          8           0       -1.234203   -0.058726    1.148246
      8          1           0       -0.730232    0.275285    1.913590
 ---------------------------------------------------------------------

 Alpha  occ. eigenvalues --  -20.52937 -20.52233 -11.24622 -11.18597  -1.46834
 Alpha  occ. eigenvalues --   -1.23212  -1.04390  -0.80801  -0.70093  -0.68845
 Alpha  occ. eigenvalues --   -0.61188  -0.58868  -0.57447  -0.50530  -0.45866
 Alpha  occ. eigenvalues --   -0.38613
 Alpha virt. eigenvalues --    0.14533   0.26375   0.28066   0.29007   0.31440
 Alpha virt. eigenvalues --    0.36726   0.49679   0.55977   0.87469   0.96738
 Alpha virt. eigenvalues --    0.98187   1.05883   1.09187   1.10556   1.24536

 Mulliken charges:
               1
     1  C    0.077400
     2  C   -0.456725
     3  H    0.247466
     4  H    0.230879
     5  H    0.259259
     6  O   -0.384700
     7  O   -0.372497
     8  H    0.398917
 Sum of Mulliken charges =   0.00000

 Dipole moment (field-independent basis, Debye):
    X=              3.0373    Y=              0.2746    Z=              1.7177  Tot=              3.5001
 Quadrupole moment (field-independent basis, Debye-Ang):
   XX=            -24.9080   YY=            -22.1047   ZZ=            -20.5757
   XY=              0.5801   XZ=             -0.0386   YZ=              1.5621

 Normal termination of Gaussian 09 at Fri Apr 12 17:03:39 2019.
