 Gaussian 09, Revision D.01,
 Gaussian 09:  AS64L-G09RevD.01 24-Apr-2013

 --------------------------------------------------------------------
 #p hf 3-21g scf=tight NoSymmetry guess=read opt=(tight,modredundant)
 --------------------------------------------------------------------

 -----------------------------------
 Geometry optimization at the 2D-PES
 -----------------------------------
 Symbolic Z-matrix:
 Charge =  0 Multiplicity = 1

 SCF Done:  E(RHF) =  -226.382452246     A.U. after   13 cycles
 SCF Done:  E(RHF) =  -226.382462489     A.U. after   12 cycles
 SCF Done:  E(RHF) =  -226.382473284     A.U. after   11 cycles
 SCF Done:  E(RHF) =  -226.382473352     A.U. after    9 cycles
 SCF Done:  E(RHF) =  -226.382473358     A.U. after    8 cycles
 SCF Done:  E(RHF) =  -226.382473358     A.U. after    5 cycles
 Optimization completed.
    -- Stationary point found.

                          Input orientation:
 ---------------------------------------------------------------------
 Center     Atomic      Atomic             Coordinates (Angstroms)
 Number     Number       Type             X           Y           Z
 ---------------------------------------------------------------------
      1          6           0        0.736103    0.605878    0.025504
      2          6           0        1.410070   -0.518348    0.004108
      3          1           0        1.196464    1.569823    0.080816
      4          1           0        2.479853   -0.507874    0.032561
      5          1           0        0.931881   -1.478994   -0.012466
      6          8           0       -0.669570    0.684245    0.004348
      7          8           0       -1.229557    0.066358   -1.207972
      8          1           0       -0.683849   -0.729349   -1.336883
 ---------------------------------------------------------------------

 Alpha  occ. eigenvalues --  -20.53239 -20.52522 -11.25688 -11.19270  -1.47130
 Alpha  occ. eigenvalues --   -1.23770  -1.05300  -0.80878  -0.72907  -0.67195
 Alpha  occ. eigenvalues --   -0.63303  -0.59339  -0.55748  -0.52082  -0.46502
 Alpha  occ. eigenvalues --   -0.38851
 Alpha virt. eigenvalues --    0.14430   0.23182   0.27784   0.29039   0.32961
 Alpha virt. eigenvalues --    0.36541   0.50113   0.55967   0.87523   0.95564
 Alpha virt. eigenvalues --    0.99813   1.05134   1.08332   1.10851   1.24155

 Mulliken charges:
               1
     1  C    0.125007
     2  C   -0.498369
     3  H    0.258300
     4  H    0.241613
     5  H    0.227662
     6  O   -0.390960
     7  O   -0.366142
     8  H    0.402890
 Sum of Mulliken charges =   0.00000

 Dipole moment (field-independent basis, Debye):
    X=              3.0750    Y=             -1.6967    Z=             -0.3892  Tot=              3.5336
 Quadrupole moment (field-independent basis, Debye-Ang):
   XX=            -24.9535   YY=            -20.9721   ZZ=            -24.9594
   XY=              2.5899   XZ=             -0.8707   YZ=              2.2781

 Normal termination of Gaussian 09 at Fri Apr 12 14:57:54 2019.
