 Gaussian 09, Revision D.01,
 Gaussian 09:  AS64L-G09RevD.01 24-Apr-2013

 --------------------------------------------------------------------
 #p hf 3-21g scf=tight NoSymmetry guess=read opt=(tight,modredundant)
 --------------------------------------------------------------------

 -----------------------------------
 Geometry optimization at the 2D-PES
 -----------------------------------
 Symbolic Z-matrix:
 Charge =  0 Multiplicity = 1

 SCF Done:  E(RHF) =  -226.382756864     A.U. after   13 cycles
 SCF Done:  E(RHF) =  -226.382773627     A.U. after   12 cycles
 SCF Done:  E(RHF) =  -226.382784211     A.U. after   11 cycles
 SCF Done:  E(RHF) =  -226.382784448     A.U. after   10 cycles
 SCF Done:  E(RHF) =  -226.382784458     A.U. after    7 cycles
 SCF Done:  E(RHF) =  -226.382784461     A.U. after    7 cycles
 Optimization completed.
    -- Stationary point found.

                          Input orientation:
 ---------------------------------------------------------------------
 Center     Atomic      Atomic             Coordinates (Angstroms)
 Number     Number       Type             X           Y           Z
 ---------------------------------------------------------------------
      1          6           0        0.741013    0.631329    0.034593
      2          6           0        1.387520   -0.507459   -0.008962
      3          1           0        1.210731    1.592329    0.081480
      4          1           0        2.457826   -0.532387    0.021369
      5          1           0        0.858816   -1.438679   -0.047856
      6          8           0       -0.668893    0.659547    0.038181
      7          8           0       -1.155129    0.962955   -1.326765
      8          1           0       -0.398474    0.739444   -1.900911
 ---------------------------------------------------------------------

 Alpha  occ. eigenvalues --  -20.52873 -20.51875 -11.25120 -11.19697  -1.46434
 Alpha  occ. eigenvalues --   -1.23395  -1.04978  -0.81230  -0.72096  -0.67135
 Alpha  occ. eigenvalues --   -0.61220  -0.59216  -0.56443  -0.52609  -0.44142
 Alpha  occ. eigenvalues --   -0.40064
 Alpha virt. eigenvalues --    0.13757   0.26603   0.27208   0.29570   0.30642
 Alpha virt. eigenvalues --    0.35909   0.48845   0.55191   0.87536   0.96912
 Alpha virt. eigenvalues --    0.97216   1.04939   1.08462   1.11097   1.23723

 Mulliken charges:
               1
     1  C    0.066622
     2  C   -0.449706
     3  H    0.245374
     4  H    0.236027
     5  H    0.257020
     6  O   -0.377059
     7  O   -0.376008
     8  H    0.397730
 Sum of Mulliken charges =   0.00000

 Dipole moment (field-independent basis, Debye):
    X=              3.6486    Y=             -0.7508    Z=             -1.2310  Tot=              3.9232
 Quadrupole moment (field-independent basis, Debye-Ang):
   XX=            -25.1727   YY=            -22.8502   ZZ=            -21.7034
   XY=              2.6389   XZ=             -1.3702   YZ=             -0.1714

 Normal termination of Gaussian 09 at Fri Apr 12 15:09:34 2019.
