 Gaussian 09, Revision D.01,
 Gaussian 09:  AS64L-G09RevD.01 24-Apr-2013

 --------------------------------------------------------------------
 #p hf 3-21g scf=tight NoSymmetry guess=read opt=(tight,modredundant)
 --------------------------------------------------------------------

 -----------------------------------
 Geometry optimization at the 2D-PES
 -----------------------------------
 Symbolic Z-matrix:
 Charge =  0 Multiplicity = 1

 SCF Done:  E(RHF) =  -226.386511177     A.U. after   13 cycles
 SCF Done:  E(RHF) =  -226.386540828     A.U. after   12 cycles
 SCF Done:  E(RHF) =  -226.386635732     A.U. after   12 cycles
 SCF Done:  E(RHF) =  -226.386636054     A.U. after   10 cycles
 SCF Done:  E(RHF) =  -226.386636142     A.U. after    9 cycles
 SCF Done:  E(RHF) =  -226.386636147     A.U. after    7 cycles
 SCF Done:  E(RHF) =  -226.386636148     A.U. after    6 cycles
 Optimization completed.
    -- Stationary point found.

                          Input orientation:
 ---------------------------------------------------------------------
 Center     Atomic      Atomic             Coordinates (Angstroms)
 Number     Number       Type             X           Y           Z
 ---------------------------------------------------------------------
      1          6           0        0.744774    0.565525    0.015614
      2          6           0        1.453279   -0.536969   -0.048394
      3          1           0        1.174645    1.542822    0.083345
      4          1           0        2.520977   -0.478748   -0.027367
      5          1           0        1.024940   -1.509306   -0.177689
      6          8           0       -0.638782    0.695238    0.041026
      7          8           0       -1.339151   -0.573352    0.221070
      8          1           0       -0.719537   -1.112909    0.747207
 ---------------------------------------------------------------------

 Alpha  occ. eigenvalues --  -20.54898 -20.53452 -11.26429 -11.18117  -1.48909
 Alpha  occ. eigenvalues --   -1.24946  -1.05248  -0.81394  -0.73077  -0.68427
 Alpha  occ. eigenvalues --   -0.64777  -0.57971  -0.55366  -0.53972  -0.48949
 Alpha  occ. eigenvalues --   -0.37446
 Alpha virt. eigenvalues --    0.17803   0.21712   0.27367   0.28279   0.33655
 Alpha virt. eigenvalues --    0.36632   0.49252   0.58645   0.87819   0.95708
 Alpha virt. eigenvalues --    1.00954   1.05412   1.08069   1.11057   1.23612

 Mulliken charges:
               1
     1  C    0.146841
     2  C   -0.543990
     3  H    0.272964
     4  H    0.238444
     5  H    0.224492
     6  O   -0.388536
     7  O   -0.362273
     8  H    0.412059
 Sum of Mulliken charges =   0.00000

 Dipole moment (field-independent basis, Debye):
    X=              2.8506    Y=             -1.0165    Z=              1.0427  Tot=              3.2010
 Quadrupole moment (field-independent basis, Debye-Ang):
   XX=            -25.6715   YY=            -20.3280   ZZ=            -24.7021
   XY=              1.8534   XZ=             -0.4675   YZ=             -1.2584

 Normal termination of Gaussian 09 at Fri Apr 12 17:44:46 2019.
