 Gaussian 09, Revision D.01,
 Gaussian 09:  AS64L-G09RevD.01 24-Apr-2013

 --------------------------------------------------------------------
 #p hf 3-21g scf=tight NoSymmetry guess=read opt=(tight,modredundant)
 --------------------------------------------------------------------

 -----------------------------------
 Geometry optimization at the 2D-PES
 -----------------------------------
 Symbolic Z-matrix:
 Charge =  0 Multiplicity = 1

 SCF Done:  E(RHF) =  -226.398382283     A.U. after   13 cycles
 SCF Done:  E(RHF) =  -226.398382861     A.U. after   11 cycles
 SCF Done:  E(RHF) =  -226.398383177     A.U. after   10 cycles
 SCF Done:  E(RHF) =  -226.398383187     A.U. after    7 cycles
 SCF Done:  E(RHF) =  -226.398383188     A.U. after    6 cycles
 Optimization completed.
    -- Stationary point found.

                          Input orientation:
 ---------------------------------------------------------------------
 Center     Atomic      Atomic             Coordinates (Angstroms)
 Number     Number       Type             X           Y           Z
 ---------------------------------------------------------------------
      1          6           0        0.732090    0.572745    0.032138
      2          6           0        1.420457   -0.536419   -0.054872
      3          1           0        1.164827    1.549715    0.098738
      4          1           0        2.489952   -0.495726   -0.059989
      5          1           0        0.946664   -1.490655   -0.122102
      6          8           0       -0.652274    0.712301    0.050483
      7          8           0       -1.268544   -0.611330   -0.045167
      8          1           0       -2.187808   -0.362111    0.145896
 ---------------------------------------------------------------------

 Alpha  occ. eigenvalues --  -20.53881 -20.52686 -11.24166 -11.15558  -1.47872
 Alpha  occ. eigenvalues --   -1.24118  -1.02633  -0.79059  -0.71961  -0.65008
 Alpha  occ. eigenvalues --   -0.64058  -0.61670  -0.53571  -0.50688  -0.48391
 Alpha  occ. eigenvalues --   -0.35356
 Alpha virt. eigenvalues --    0.20483   0.22784   0.28554   0.30599   0.34400
 Alpha virt. eigenvalues --    0.37460   0.50246   0.59332   0.89462   0.97565
 Alpha virt. eigenvalues --    1.00877   1.07724   1.10774   1.12812   1.24123

 Mulliken charges:
               1
     1  C    0.159533
     2  C   -0.508732
     3  H    0.257624
     4  H    0.217730
     5  H    0.255603
     6  O   -0.422922
     7  O   -0.384044
     8  H    0.425208
 Sum of Mulliken charges =   0.00000

 Dipole moment (field-independent basis, Debye):
    X=             -0.4268    Y=              0.3160    Z=              0.3916  Tot=              0.6598
 Quadrupole moment (field-independent basis, Debye-Ang):
   XX=            -16.0540   YY=            -22.8823   ZZ=            -25.7831
   XY=              1.7592   XZ=             -0.7997   YZ=              0.0657

 Normal termination of Gaussian 09 at Fri Apr 12 17:59:45 2019.
