 Gaussian 09, Revision D.01,
 Gaussian 09:  AS64L-G09RevD.01 24-Apr-2013

 --------------------------------------------------------------------
 #p hf 3-21g scf=tight NoSymmetry guess=read opt=(tight,modredundant)
 --------------------------------------------------------------------

 -----------------------------------
 Geometry optimization at the 2D-PES
 -----------------------------------
 Symbolic Z-matrix:
 Charge =  0 Multiplicity = 1

 SCF Done:  E(RHF) =  -226.391224167     A.U. after   13 cycles
 SCF Done:  E(RHF) =  -226.391235869     A.U. after   12 cycles
 SCF Done:  E(RHF) =  -226.391243301     A.U. after   10 cycles
 SCF Done:  E(RHF) =  -226.391243372     A.U. after    9 cycles
 SCF Done:  E(RHF) =  -226.391243377     A.U. after    7 cycles
 SCF Done:  E(RHF) =  -226.391243377     A.U. after    6 cycles
 Optimization completed.
    -- Stationary point found.

                          Input orientation:
 ---------------------------------------------------------------------
 Center     Atomic      Atomic             Coordinates (Angstroms)
 Number     Number       Type             X           Y           Z
 ---------------------------------------------------------------------
      1          6           0        0.734937    0.600252    0.058856
      2          6           0        1.399265   -0.523530   -0.022821
      3          1           0        1.196577    1.564398    0.099329
      4          1           0        2.469756   -0.521357   -0.030320
      5          1           0        0.903912   -1.472483   -0.053432
      6          8           0       -0.669577    0.693888    0.022568
      7          8           0       -1.227943   -0.074525    1.143585
      8          1           0       -1.768250   -0.720494    0.657534
 ---------------------------------------------------------------------

 Alpha  occ. eigenvalues --  -20.52727 -20.52211 -11.24065 -11.17590  -1.46763
 Alpha  occ. eigenvalues --   -1.23278  -1.03534  -0.79269  -0.69971  -0.68605
 Alpha  occ. eigenvalues --   -0.64813  -0.57465  -0.54925  -0.50281  -0.46798
 Alpha  occ. eigenvalues --   -0.37503
 Alpha virt. eigenvalues --    0.15699   0.25444   0.29274   0.30002   0.32204
 Alpha virt. eigenvalues --    0.36995   0.49942   0.56875   0.88609   0.97008
 Alpha virt. eigenvalues --    0.98889   1.06580   1.09766   1.12513   1.23502

 Mulliken charges:
               1
     1  C    0.142643
     2  C   -0.466937
     3  H    0.248564
     4  H    0.229401
     5  H    0.228403
     6  O   -0.414996
     7  O   -0.378580
     8  H    0.411502
 Sum of Mulliken charges =   0.00000

 Dipole moment (field-independent basis, Debye):
    X=              0.7934    Y=             -1.6154    Z=             -0.7251  Tot=              1.9404
 Quadrupole moment (field-independent basis, Debye-Ang):
   XX=            -19.3575   YY=            -21.1440   ZZ=            -27.4917
   XY=              4.1236   XZ=              0.5120   YZ=             -0.4761

 Normal termination of Gaussian 09 at Fri Apr 12 16:58:38 2019.
