 Gaussian 09, Revision D.01,
 Gaussian 09:  AS64L-G09RevD.01 24-Apr-2013

 --------------------------------------------------------------------
 #p hf 3-21g scf=tight NoSymmetry guess=read opt=(tight,modredundant)
 --------------------------------------------------------------------

 -----------------------------------
 Geometry optimization at the 2D-PES
 -----------------------------------
 Symbolic Z-matrix:
 Charge =  0 Multiplicity = 1

 SCF Done:  E(RHF) =  -226.392961217     A.U. after   12 cycles
 SCF Done:  E(RHF) =  -226.392972592     A.U. after   13 cycles
 SCF Done:  E(RHF) =  -226.393002647     A.U. after   12 cycles
 SCF Done:  E(RHF) =  -226.393002794     A.U. after    8 cycles
 SCF Done:  E(RHF) =  -226.393002813     A.U. after    8 cycles
 SCF Done:  E(RHF) =  -226.393002815     A.U. after    7 cycles
 Optimization completed.
    -- Stationary point found.

                          Input orientation:
 ---------------------------------------------------------------------
 Center     Atomic      Atomic             Coordinates (Angstroms)
 Number     Number       Type             X           Y           Z
 ---------------------------------------------------------------------
      1          6           0        0.741074    0.566556    0.058883
      2          6           0        1.438444   -0.536569   -0.052950
      3          1           0        1.171475    1.545348    0.100040
      4          1           0        2.506467   -0.486122   -0.086259
      5          1           0        0.989782   -1.506561   -0.056623
      6          8           0       -0.647113    0.702235    0.060182
      7          8           0       -1.311226   -0.589895    0.151445
      8          1           0       -1.124591   -0.986047   -0.720728
 ---------------------------------------------------------------------

 Alpha  occ. eigenvalues --  -20.54716 -20.53553 -11.25482 -11.17234  -1.48953
 Alpha  occ. eigenvalues --   -1.24579  -1.04329  -0.80589  -0.71713  -0.69001
 Alpha  occ. eigenvalues --   -0.65578  -0.56960  -0.54537  -0.53455  -0.49094
 Alpha  occ. eigenvalues --   -0.37073
 Alpha virt. eigenvalues --    0.18716   0.21913   0.28128   0.28847   0.33343
 Alpha virt. eigenvalues --    0.36810   0.49383   0.58330   0.88247   0.96340
 Alpha virt. eigenvalues --    0.99762   1.06166   1.09221   1.11244   1.24861

 Mulliken charges:
               1
     1  C    0.147574
     2  C   -0.524887
     3  H    0.267013
     4  H    0.230637
     5  H    0.227967
     6  O   -0.394701
     7  O   -0.363511
     8  H    0.409909
 Sum of Mulliken charges =   0.00000

 Dipole moment (field-independent basis, Debye):
    X=              1.9448    Y=             -0.8348    Z=             -1.7091  Tot=              2.7203
 Quadrupole moment (field-independent basis, Debye-Ang):
   XX=            -24.1232   YY=            -21.0029   ZZ=            -24.6190
   XY=              2.4971   XZ=              2.2546   YZ=              1.9829

 Normal termination of Gaussian 09 at Fri Apr 12 17:52:13 2019.
