 Gaussian 09, Revision D.01,
 Gaussian 09:  AS64L-G09RevD.01 24-Apr-2013

 --------------------------------------------------------------------
 #p hf 3-21g scf=tight NoSymmetry guess=read opt=(tight,modredundant)
 --------------------------------------------------------------------

 -----------------------------------
 Geometry optimization at the 2D-PES
 -----------------------------------
 Symbolic Z-matrix:
 Charge =  0 Multiplicity = 1

 SCF Done:  E(RHF) =  -226.395401179     A.U. after   13 cycles
 SCF Done:  E(RHF) =  -226.395407403     A.U. after   11 cycles
 SCF Done:  E(RHF) =  -226.395411639     A.U. after   10 cycles
 SCF Done:  E(RHF) =  -226.395411697     A.U. after    8 cycles
 SCF Done:  E(RHF) =  -226.395411702     A.U. after    7 cycles
 Optimization completed.
    -- Stationary point found.

                          Input orientation:
 ---------------------------------------------------------------------
 Center     Atomic      Atomic             Coordinates (Angstroms)
 Number     Number       Type             X           Y           Z
 ---------------------------------------------------------------------
      1          6           0        0.727487    0.638067    0.024488
      2          6           0        1.368500   -0.502649   -0.019408
      3          1           0        1.184882    1.601133    0.083510
      4          1           0        2.437881   -0.522556    0.018747
      5          1           0        0.847051   -1.436137   -0.079356
      6          8           0       -0.674455    0.673046    0.049353
      7          8           0       -1.073555    2.013210   -0.384601
      8          1           0       -1.601946    1.793811   -1.170918
 ---------------------------------------------------------------------

 Alpha  occ. eigenvalues --  -20.53703 -20.52852 -11.24356 -11.16641  -1.47929
 Alpha  occ. eigenvalues --   -1.24024  -1.02900  -0.79837  -0.71701  -0.66477
 Alpha  occ. eigenvalues --   -0.63925  -0.59900  -0.55284  -0.50011  -0.48685
 Alpha  occ. eigenvalues --   -0.36356
 Alpha virt. eigenvalues --    0.18641   0.23185   0.27610   0.31830   0.33819
 Alpha virt. eigenvalues --    0.35891   0.49673   0.57532   0.90213   0.96913
 Alpha virt. eigenvalues --    1.00177   1.06416   1.10775   1.12608   1.22114

 Mulliken charges:
               1
     1  C    0.155549
     2  C   -0.506216
     3  H    0.261984
     4  H    0.227187
     5  H    0.237885
     6  O   -0.409817
     7  O   -0.384044
     8  H    0.417471
 Sum of Mulliken charges =   0.00000

 Dipole moment (field-independent basis, Debye):
    X=              0.6244    Y=             -0.0635    Z=             -1.7753  Tot=              1.8830
 Quadrupole moment (field-independent basis, Debye-Ang):
   XX=            -20.1001   YY=            -23.4487   ZZ=            -22.9316
   XY=             -0.2446   XZ=              3.6664   YZ=             -2.8110

 Normal termination of Gaussian 09 at Fri Apr 12 15:30:33 2019.
