 Gaussian 09, Revision D.01,
 Gaussian 09:  AS64L-G09RevD.01 24-Apr-2013

 --------------------------------------------------------------------
 #p hf 3-21g scf=tight NoSymmetry guess=read opt=(tight,modredundant)
 --------------------------------------------------------------------

 -----------------------------------
 Geometry optimization at the 2D-PES
 -----------------------------------
 Symbolic Z-matrix:
 Charge =  0 Multiplicity = 1

 SCF Done:  E(RHF) =  -226.395633164     A.U. after   13 cycles
 SCF Done:  E(RHF) =  -226.395633607     A.U. after    9 cycles
 SCF Done:  E(RHF) =  -226.395633650     A.U. after    8 cycles
 SCF Done:  E(RHF) =  -226.395633664     A.U. after    7 cycles
 Optimization completed.
    -- Stationary point found.

                          Input orientation:
 ---------------------------------------------------------------------
 Center     Atomic      Atomic             Coordinates (Angstroms)
 Number     Number       Type             X           Y           Z
 ---------------------------------------------------------------------
      1          6           0        0.724739    0.632936    0.052313
      2          6           0        1.366894   -0.506207    0.005313
      3          1           0        1.184255    1.594887    0.128127
      4          1           0        2.437098   -0.528814   -0.006518
      5          1           0        0.839240   -1.436706   -0.041783
      6          8           0       -0.673792    0.669148   -0.027481
      7          8           0       -1.106443    1.509974    1.104334
      8          1           0       -2.067313    1.472939    0.963202
 ---------------------------------------------------------------------

 Alpha  occ. eigenvalues --  -20.52887 -20.51906 -11.23903 -11.17079  -1.46720
 Alpha  occ. eigenvalues --   -1.23506  -1.02812  -0.79456  -0.69472  -0.68114
 Alpha  occ. eigenvalues --   -0.63964  -0.58121  -0.55720  -0.50997  -0.45706
 Alpha  occ. eigenvalues --   -0.37015
 Alpha virt. eigenvalues --    0.16935   0.26111   0.28539   0.31703   0.32640
 Alpha virt. eigenvalues --    0.36161   0.49681   0.57256   0.89811   0.97428
 Alpha virt. eigenvalues --    0.99829   1.07126   1.10670   1.12203   1.23890

 Mulliken charges:
               1
     1  C    0.162521
     2  C   -0.481686
     3  H    0.248016
     4  H    0.226495
     5  H    0.241282
     6  O   -0.420592
     7  O   -0.395133
     8  H    0.419097
 Sum of Mulliken charges =   0.00000

 Dipole moment (field-independent basis, Debye):
    X=             -0.1436    Y=             -0.0057    Z=             -0.0391  Tot=              0.1489
 Quadrupole moment (field-independent basis, Debye-Ang):
   XX=            -16.1742   YY=            -22.1911   ZZ=            -26.3414
   XY=             -1.8111   XZ=             -1.8420   YZ=             -0.1201

 Normal termination of Gaussian 09 at Fri Apr 12 16:12:08 2019.
