 Gaussian 09, Revision D.01,
 Gaussian 09:  AS64L-G09RevD.01 24-Apr-2013

 --------------------------------------------------------------------
 #p hf 3-21g scf=tight NoSymmetry guess=read opt=(tight,modredundant)
 --------------------------------------------------------------------

 -----------------------------------
 Geometry optimization at the 2D-PES
 -----------------------------------
 Symbolic Z-matrix:
 Charge =  0 Multiplicity = 1

 SCF Done:  E(RHF) =  -226.390601782     A.U. after   12 cycles
 SCF Done:  E(RHF) =  -226.390606809     A.U. after   11 cycles
 SCF Done:  E(RHF) =  -226.390612416     A.U. after   10 cycles
 SCF Done:  E(RHF) =  -226.390612442     A.U. after    8 cycles
 SCF Done:  E(RHF) =  -226.390612450     A.U. after    7 cycles
 Optimization completed.
    -- Stationary point found.

                          Input orientation:
 ---------------------------------------------------------------------
 Center     Atomic      Atomic             Coordinates (Angstroms)
 Number     Number       Type             X           Y           Z
 ---------------------------------------------------------------------
      1          6           0        0.722691    0.630285    0.033065
      2          6           0        1.372639   -0.505065   -0.022184
      3          1           0        1.184103    1.594155    0.053168
      4          1           0        2.443201   -0.525153   -0.010713
      5          1           0        0.853025   -1.442455   -0.044613
      6          8           0       -0.689500    0.656259    0.048329
      7          8           0       -1.120822    0.968094   -1.323635
      8          1           0       -1.038143    0.098230   -1.755072
 ---------------------------------------------------------------------

 Alpha  occ. eigenvalues --  -20.52977 -20.52155 -11.24592 -11.18750  -1.47000
 Alpha  occ. eigenvalues --   -1.23227  -1.04255  -0.80147  -0.72219  -0.65490
 Alpha  occ. eigenvalues --   -0.64193  -0.59974  -0.56135  -0.48696  -0.46406
 Alpha  occ. eigenvalues --   -0.39507
 Alpha virt. eigenvalues --    0.15088   0.25304   0.28101   0.30678   0.31548
 Alpha virt. eigenvalues --    0.35884   0.48921   0.55814   0.88218   0.96425
 Alpha virt. eigenvalues --    0.98026   1.06104   1.09148   1.11069   1.24611

 Mulliken charges:
               1
     1  C    0.119592
     2  C   -0.469577
     3  H    0.247579
     4  H    0.234019
     5  H    0.239073
     6  O   -0.393156
     7  O   -0.379126
     8  H    0.401597
 Sum of Mulliken charges =   0.00000

 Dipole moment (field-independent basis, Debye):
    X=              2.2090    Y=             -1.8607    Z=             -1.0555  Tot=              3.0751
 Quadrupole moment (field-independent basis, Debye-Ang):
   XX=            -23.3790   YY=            -23.8336   ZZ=            -22.8250
   XY=              3.2776   XZ=              1.0002   YZ=              2.4394

 Normal termination of Gaussian 09 at Fri Apr 12 15:07:52 2019.
