 Gaussian 09, Revision D.01,
 Gaussian 09:  AS64L-G09RevD.01 24-Apr-2013

 --------------------------------------------------------------------
 #p hf 3-21g scf=tight NoSymmetry guess=read opt=(tight,modredundant)
 --------------------------------------------------------------------

 -----------------------------------
 Geometry optimization at the 2D-PES
 -----------------------------------
 Symbolic Z-matrix:
 Charge =  0 Multiplicity = 1

 SCF Done:  E(RHF) =  -226.390677756     A.U. after   13 cycles
 SCF Done:  E(RHF) =  -226.390686482     A.U. after   11 cycles
 SCF Done:  E(RHF) =  -226.390691278     A.U. after   10 cycles
 SCF Done:  E(RHF) =  -226.390691334     A.U. after    8 cycles
 SCF Done:  E(RHF) =  -226.390691338     A.U. after    7 cycles
 Optimization completed.
    -- Stationary point found.

                          Input orientation:
 ---------------------------------------------------------------------
 Center     Atomic      Atomic             Coordinates (Angstroms)
 Number     Number       Type             X           Y           Z
 ---------------------------------------------------------------------
      1          6           0        0.733000    0.607901    0.050495
      2          6           0        1.390127   -0.521097   -0.015694
      3          1           0        1.200868    1.568143    0.105488
      4          1           0        2.460766   -0.529144   -0.011084
      5          1           0        0.885825   -1.465092   -0.063170
      6          8           0       -0.674383    0.686910    0.006703
      7          8           0       -1.209476    0.133717    1.261225
      8          1           0       -1.748216   -0.595023    0.909059
 ---------------------------------------------------------------------

 Alpha  occ. eigenvalues --  -20.52505 -20.51983 -11.23993 -11.17880  -1.46484
 Alpha  occ. eigenvalues --   -1.23100  -1.03591  -0.79300  -0.70178  -0.68014
 Alpha  occ. eigenvalues --   -0.64639  -0.57848  -0.55303  -0.49555  -0.46241
 Alpha  occ. eigenvalues --   -0.38034
 Alpha virt. eigenvalues --    0.15292   0.25781   0.29263   0.30293   0.31905
 Alpha virt. eigenvalues --    0.36821   0.49808   0.56614   0.88544   0.97080
 Alpha virt. eigenvalues --    0.98345   1.06516   1.09658   1.12516   1.23765

 Mulliken charges:
               1
     1  C    0.140583
     2  C   -0.460522
     3  H    0.245204
     4  H    0.230433
     5  H    0.229329
     6  O   -0.414761
     7  O   -0.380671
     8  H    0.410406
 Sum of Mulliken charges =   0.00000

 Dipole moment (field-independent basis, Debye):
    X=              0.8702    Y=             -1.7883    Z=             -0.4254  Tot=              2.0338
 Quadrupole moment (field-independent basis, Debye-Ang):
   XX=            -19.3928   YY=            -21.4669   ZZ=            -27.2464
   XY=              4.0810   XZ=             -0.1768   YZ=             -1.1405

 Normal termination of Gaussian 09 at Fri Apr 12 16:55:30 2019.
