 Gaussian 09, Revision D.01,
 Gaussian 09:  AS64L-G09RevD.01 24-Apr-2013

 --------------------------------------------------------------------
 #p hf 3-21g scf=tight NoSymmetry guess=read opt=(tight,modredundant)
 --------------------------------------------------------------------

 -----------------------------------
 Geometry optimization at the 2D-PES
 -----------------------------------
 Symbolic Z-matrix:
 Charge =  0 Multiplicity = 1

 SCF Done:  E(RHF) =  -226.382272997     A.U. after   13 cycles
 SCF Done:  E(RHF) =  -226.382296112     A.U. after   13 cycles
 SCF Done:  E(RHF) =  -226.382327279     A.U. after   12 cycles
 SCF Done:  E(RHF) =  -226.382327523     A.U. after    9 cycles
 SCF Done:  E(RHF) =  -226.382327579     A.U. after    9 cycles
 SCF Done:  E(RHF) =  -226.382327582     A.U. after    7 cycles
 Optimization completed.
    -- Stationary point found.

                          Input orientation:
 ---------------------------------------------------------------------
 Center     Atomic      Atomic             Coordinates (Angstroms)
 Number     Number       Type             X           Y           Z
 ---------------------------------------------------------------------
      1          6           0        0.757266    0.633991    0.016724
      2          6           0        1.382372   -0.515379   -0.011619
      3          1           0        1.248715    1.581280    0.116464
      4          1           0        2.450648   -0.553664    0.040907
      5          1           0        0.842976   -1.437944   -0.078091
      6          8           0       -0.644127    0.688226    0.041292
      7          8           0       -1.122017    2.004095   -0.399789
      8          1           0       -0.444505    2.315338   -1.027756
 ---------------------------------------------------------------------

 Alpha  occ. eigenvalues --  -20.54050 -20.53084 -11.25556 -11.17981  -1.47934
 Alpha  occ. eigenvalues --   -1.24434  -1.04175  -0.81727  -0.72213  -0.66642
 Alpha  occ. eigenvalues --   -0.64049  -0.58824  -0.54974  -0.53342  -0.48162
 Alpha  occ. eigenvalues --   -0.37068
 Alpha virt. eigenvalues --    0.16225   0.23064   0.25816   0.30935   0.33335
 Alpha virt. eigenvalues --    0.35316   0.49892   0.56310   0.88616   0.96184
 Alpha virt. eigenvalues --    0.99075   1.06130   1.09780   1.10848   1.23843

 Mulliken charges:
               1
     1  C    0.108865
     2  C   -0.487490
     3  H    0.241091
     4  H    0.231855
     5  H    0.250993
     6  O   -0.379364
     7  O   -0.366313
     8  H    0.400362
 Sum of Mulliken charges =   0.00000

 Dipole moment (field-independent basis, Debye):
    X=              3.1988    Y=              0.6884    Z=             -1.3093  Tot=              3.5243
 Quadrupole moment (field-independent basis, Debye-Ang):
   XX=            -25.1279   YY=            -19.0616   ZZ=            -23.8037
   XY=              3.6219   XZ=              0.3143   YZ=             -3.2307

 Normal termination of Gaussian 09 at Fri Apr 12 15:32:43 2019.
