 Gaussian 09, Revision D.01,
 Gaussian 09:  AS64L-G09RevD.01 24-Apr-2013

 --------------------------------------------------------------------
 #p hf 3-21g scf=tight NoSymmetry guess=read opt=(tight,modredundant)
 --------------------------------------------------------------------

 -----------------------------------
 Geometry optimization at the 2D-PES
 -----------------------------------
 Symbolic Z-matrix:
 Charge =  0 Multiplicity = 1

 SCF Done:  E(RHF) =  -226.392868296     A.U. after   12 cycles
 SCF Done:  E(RHF) =  -226.392870952     A.U. after   11 cycles
 SCF Done:  E(RHF) =  -226.392872414     A.U. after   10 cycles
 SCF Done:  E(RHF) =  -226.392872449     A.U. after    7 cycles
 SCF Done:  E(RHF) =  -226.392872452     A.U. after    6 cycles
 Optimization completed.
    -- Stationary point found.

                          Input orientation:
 ---------------------------------------------------------------------
 Center     Atomic      Atomic             Coordinates (Angstroms)
 Number     Number       Type             X           Y           Z
 ---------------------------------------------------------------------
      1          6           0        0.725195    0.626069    0.043937
      2          6           0        1.371318   -0.510390    0.000616
      3          1           0        1.192085    1.584322    0.127372
      4          1           0        2.441931   -0.532647    0.010221
      5          1           0        0.847533   -1.442581   -0.061065
      6          8           0       -0.680616    0.667773   -0.022143
      7          8           0       -1.149603    0.833966    1.369886
      8          1           0       -2.002515    0.372672    1.298708
 ---------------------------------------------------------------------

 Alpha  occ. eigenvalues --  -20.52276 -20.51495 -11.23711 -11.17766  -1.46025
 Alpha  occ. eigenvalues --   -1.22978  -1.03177  -0.79217  -0.69510  -0.67940
 Alpha  occ. eigenvalues --   -0.63580  -0.58460  -0.55721  -0.50034  -0.44116
 Alpha  occ. eigenvalues --   -0.38514
 Alpha virt. eigenvalues --    0.15573   0.27433   0.29039   0.30919   0.31756
 Alpha virt. eigenvalues --    0.36385   0.49445   0.56793   0.89014   0.97479
 Alpha virt. eigenvalues --    0.98792   1.07013   1.10143   1.12627   1.23484

 Mulliken charges:
               1
     1  C    0.145774
     2  C   -0.456705
     3  H    0.239951
     4  H    0.228226
     5  H    0.240011
     6  O   -0.419219
     7  O   -0.392690
     8  H    0.414652
 Sum of Mulliken charges =   0.00000

 Dipole moment (field-independent basis, Debye):
    X=              0.2499    Y=             -1.1717    Z=              0.1554  Tot=              1.2081
 Quadrupole moment (field-independent basis, Debye-Ang):
   XX=            -16.9394   YY=            -23.3356   ZZ=            -26.0304
   XY=              1.7653   XZ=             -2.3540   YZ=             -1.0293

 Normal termination of Gaussian 09 at Fri Apr 12 16:28:29 2019.
