 Gaussian 09, Revision D.01,
 Gaussian 09:  AS64L-G09RevD.01 24-Apr-2013

 --------------------------------------------------------------------
 #p hf 3-21g scf=tight NoSymmetry guess=read opt=(tight,modredundant)
 --------------------------------------------------------------------

 -----------------------------------
 Geometry optimization at the 2D-PES
 -----------------------------------
 Symbolic Z-matrix:
 Charge =  0 Multiplicity = 1

 SCF Done:  E(RHF) =  -226.378809602     A.U. after   13 cycles
 SCF Done:  E(RHF) =  -226.378812813     A.U. after   10 cycles
 SCF Done:  E(RHF) =  -226.378813149     A.U. after    9 cycles
 SCF Done:  E(RHF) =  -226.378813194     A.U. after    8 cycles
 SCF Done:  E(RHF) =  -226.378813197     A.U. after    6 cycles
 Optimization completed.
    -- Stationary point found.

                          Input orientation:
 ---------------------------------------------------------------------
 Center     Atomic      Atomic             Coordinates (Angstroms)
 Number     Number       Type             X           Y           Z
 ---------------------------------------------------------------------
      1          6           0        0.770358    0.627935    0.061775
      2          6           0        1.384849   -0.525758    0.001300
      3          1           0        1.285415    1.569315    0.072702
      4          1           0        2.453748   -0.571143   -0.024064
      5          1           0        0.834928   -1.443667   -0.032414
      6          8           0       -0.626247    0.703530   -0.006593
      7          8           0       -1.147259    1.966306    0.534219
      8          1           0       -0.364253    2.469197    0.822673
 ---------------------------------------------------------------------

 Alpha  occ. eigenvalues --  -20.54096 -20.53098 -11.25907 -11.17950  -1.47832
 Alpha  occ. eigenvalues --   -1.24648  -1.04280  -0.82174  -0.71951  -0.67157
 Alpha  occ. eigenvalues --   -0.63437  -0.59013  -0.55481  -0.52944  -0.48582
 Alpha  occ. eigenvalues --   -0.36836
 Alpha virt. eigenvalues --    0.16756   0.22780   0.24028   0.30845   0.34009
 Alpha virt. eigenvalues --    0.35547   0.51088   0.56208   0.88653   0.95820
 Alpha virt. eigenvalues --    0.99245   1.05601   1.09757   1.11186   1.23026

 Mulliken charges:
               1
     1  C    0.118108
     2  C   -0.486150
     3  H    0.227832
     4  H    0.231548
     5  H    0.252403
     6  O   -0.380087
     7  O   -0.363071
     8  H    0.399418
 Sum of Mulliken charges =   0.00000

 Dipole moment (field-independent basis, Debye):
    X=              3.3870    Y=              1.0317    Z=              0.6967  Tot=              3.6085
 Quadrupole moment (field-independent basis, Debye-Ang):
   XX=            -25.2928   YY=            -17.2394   ZZ=            -24.9636
   XY=              3.9074   XZ=              0.5218   YZ=              2.3698

 Normal termination of Gaussian 09 at Fri Apr 12 15:54:26 2019.
