 Gaussian 09, Revision D.01,
 Gaussian 09:  AS64L-G09RevD.01 24-Apr-2013

 --------------------------------------------------------------------
 #p hf 3-21g scf=tight NoSymmetry guess=read opt=(tight,modredundant)
 --------------------------------------------------------------------

 -----------------------------------
 Geometry optimization at the 2D-PES
 -----------------------------------
 Symbolic Z-matrix:
 Charge =  0 Multiplicity = 1

 SCF Done:  E(RHF) =  -226.384746099     A.U. after   13 cycles
 SCF Done:  E(RHF) =  -226.384756482     A.U. after   12 cycles
 SCF Done:  E(RHF) =  -226.384766730     A.U. after   10 cycles
 SCF Done:  E(RHF) =  -226.384766784     A.U. after    9 cycles
 SCF Done:  E(RHF) =  -226.384766790     A.U. after    8 cycles
 SCF Done:  E(RHF) =  -226.384766791     A.U. after    7 cycles
 Optimization completed.
    -- Stationary point found.

                          Input orientation:
 ---------------------------------------------------------------------
 Center     Atomic      Atomic             Coordinates (Angstroms)
 Number     Number       Type             X           Y           Z
 ---------------------------------------------------------------------
      1          6           0        0.747626    0.622209    0.043648
      2          6           0        1.386630   -0.517797   -0.004195
      3          1           0        1.229370    1.579386    0.090445
      4          1           0        2.457216   -0.549566   -0.012017
      5          1           0        0.849425   -1.443035   -0.050191
      6          8           0       -0.661903    0.677570   -0.011962
      7          8           0       -1.191832    0.848065    1.353120
      8          1           0       -0.675241    1.595170    1.709263
 ---------------------------------------------------------------------

 Alpha  occ. eigenvalues --  -20.52862 -20.52006 -11.24531 -11.18878  -1.46570
 Alpha  occ. eigenvalues --   -1.23239  -1.04224  -0.81090  -0.70016  -0.68783
 Alpha  occ. eigenvalues --   -0.61468  -0.58304  -0.57559  -0.50058  -0.45328
 Alpha  occ. eigenvalues --   -0.39294
 Alpha virt. eigenvalues --    0.14293   0.26418   0.27277   0.30073   0.32043
 Alpha virt. eigenvalues --    0.35629   0.49457   0.55777   0.87836   0.96347
 Alpha virt. eigenvalues --    0.98621   1.06189   1.09494   1.10459   1.25268

 Mulliken charges:
               1
     1  C    0.084681
     2  C   -0.441343
     3  H    0.227775
     4  H    0.230758
     5  H    0.258964
     6  O   -0.381898
     7  O   -0.374149
     8  H    0.395213
 Sum of Mulliken charges =   0.00000

 Dipole moment (field-independent basis, Debye):
    X=              3.1315    Y=              1.0653    Z=              0.8993  Tot=              3.4278
 Quadrupole moment (field-independent basis, Debye-Ang):
   XX=            -24.7815   YY=            -18.3490   ZZ=            -23.3837
   XY=              0.7749   XZ=              0.8505   YZ=              3.6694

 Normal termination of Gaussian 09 at Fri Apr 12 16:33:33 2019.
