 Gaussian 09, Revision D.01,
 Gaussian 09:  AS64L-G09RevD.01 24-Apr-2013

 --------------------------------------------------------------------
 #p hf 3-21g scf=tight NoSymmetry guess=read opt=(tight,modredundant)
 --------------------------------------------------------------------

 -----------------------------------
 Geometry optimization at the 2D-PES
 -----------------------------------
 Symbolic Z-matrix:
 Charge =  0 Multiplicity = 1

 SCF Done:  E(RHF) =  -226.395614830     A.U. after   13 cycles
 SCF Done:  E(RHF) =  -226.395619879     A.U. after   11 cycles
 SCF Done:  E(RHF) =  -226.395623587     A.U. after   10 cycles
 SCF Done:  E(RHF) =  -226.395623642     A.U. after    8 cycles
 SCF Done:  E(RHF) =  -226.395623646     A.U. after    7 cycles
 Optimization completed.
    -- Stationary point found.

                          Input orientation:
 ---------------------------------------------------------------------
 Center     Atomic      Atomic             Coordinates (Angstroms)
 Number     Number       Type             X           Y           Z
 ---------------------------------------------------------------------
      1          6           0        0.725122    0.637826    0.024899
      2          6           0        1.367562   -0.502142   -0.019528
      3          1           0        1.182145    1.601204    0.081892
      4          1           0        2.436961   -0.520587    0.018032
      5          1           0        0.847381   -1.436282   -0.079870
      6          8           0       -0.675632    0.671946    0.050330
      7          8           0       -1.070286    2.014730   -0.384205
      8          1           0       -1.726589    1.787398   -1.064245
 ---------------------------------------------------------------------

 Alpha  occ. eigenvalues --  -20.53639 -20.52768 -11.24314 -11.16535  -1.47818
 Alpha  occ. eigenvalues --   -1.24026  -1.02801  -0.79801  -0.71412  -0.66632
 Alpha  occ. eigenvalues --   -0.63623  -0.60214  -0.55310  -0.49936  -0.48588
 Alpha  occ. eigenvalues --   -0.36196
 Alpha virt. eigenvalues --    0.18784   0.23221   0.27647   0.31915   0.33886
 Alpha virt. eigenvalues --    0.35940   0.49804   0.57603   0.90281   0.97056
 Alpha virt. eigenvalues --    1.00218   1.06657   1.10856   1.12814   1.21926

 Mulliken charges:
               1
     1  C    0.161167
     2  C   -0.507241
     3  H    0.262390
     4  H    0.226782
     5  H    0.237098
     6  O   -0.413486
     7  O   -0.386234
     8  H    0.419524
 Sum of Mulliken charges =   0.00000

 Dipole moment (field-independent basis, Debye):
    X=              0.3437    Y=             -0.0650    Z=             -1.5594  Tot=              1.5981
 Quadrupole moment (field-independent basis, Debye-Ang):
   XX=            -19.1309   YY=            -23.5027   ZZ=            -23.4848
   XY=             -0.7138   XZ=              3.6025   YZ=             -2.3969

 Normal termination of Gaussian 09 at Fri Apr 12 15:30:23 2019.
