 Gaussian 09, Revision D.01,
 Gaussian 09:  AS64L-G09RevD.01 24-Apr-2013

 --------------------------------------------------------------------
 #p hf 3-21g scf=tight NoSymmetry guess=read opt=(tight,modredundant)
 --------------------------------------------------------------------

 -----------------------------------
 Geometry optimization at the 2D-PES
 -----------------------------------
 Symbolic Z-matrix:
 Charge =  0 Multiplicity = 1

 SCF Done:  E(RHF) =  -226.383058075     A.U. after   13 cycles
 SCF Done:  E(RHF) =  -226.383078652     A.U. after   12 cycles
 SCF Done:  E(RHF) =  -226.383092810     A.U. after   10 cycles
 SCF Done:  E(RHF) =  -226.383092994     A.U. after   10 cycles
 SCF Done:  E(RHF) =  -226.383093020     A.U. after    9 cycles
 SCF Done:  E(RHF) =  -226.383093021     A.U. after    6 cycles
 Optimization completed.
    -- Stationary point found.

                          Input orientation:
 ---------------------------------------------------------------------
 Center     Atomic      Atomic             Coordinates (Angstroms)
 Number     Number       Type             X           Y           Z
 ---------------------------------------------------------------------
      1          6           0        0.748054    0.634502    0.025566
      2          6           0        1.385776   -0.508393   -0.011055
      3          1           0        1.222349    1.592955    0.093110
      4          1           0        2.454764   -0.541839    0.042534
      5          1           0        0.849815   -1.433842   -0.069775
      6          8           0       -0.658550    0.667054    0.040395
      7          8           0       -1.144660    1.407076   -1.143092
      8          1           0       -0.394251    1.387569   -1.765984
 ---------------------------------------------------------------------

 Alpha  occ. eigenvalues --  -20.53236 -20.52107 -11.25124 -11.19284  -1.46788
 Alpha  occ. eigenvalues --   -1.23696  -1.04681  -0.81410  -0.72042  -0.67080
 Alpha  occ. eigenvalues --   -0.61684  -0.59379  -0.55946  -0.52809  -0.45258
 Alpha  occ. eigenvalues --   -0.39087
 Alpha virt. eigenvalues --    0.14171   0.25772   0.27542   0.29984   0.31326
 Alpha virt. eigenvalues --    0.35486   0.48770   0.55722   0.87741   0.96407
 Alpha virt. eigenvalues --    0.97942   1.05775   1.08986   1.11062   1.24326

 Mulliken charges:
               1
     1  C    0.071921
     2  C   -0.455309
     3  H    0.244380
     4  H    0.234300
     5  H    0.256794
     6  O   -0.375103
     7  O   -0.376074
     8  H    0.399090
 Sum of Mulliken charges =   0.00000

 Dipole moment (field-independent basis, Debye):
    X=              3.5697    Y=             -0.3021    Z=             -1.3233  Tot=              3.8191
 Quadrupole moment (field-independent basis, Debye-Ang):
   XX=            -25.1623   YY=            -22.1902   ZZ=            -21.7942
   XY=              3.1571   XZ=             -0.9867   YZ=             -1.6550

 Normal termination of Gaussian 09 at Fri Apr 12 15:17:05 2019.
