 Gaussian 09, Revision D.01,
 Gaussian 09:  AS64L-G09RevD.01 24-Apr-2013

 --------------------------------------------------------------------
 #p hf 3-21g scf=tight NoSymmetry guess=read opt=(tight,modredundant)
 --------------------------------------------------------------------

 -----------------------------------
 Geometry optimization at the 2D-PES
 -----------------------------------
 Symbolic Z-matrix:
 Charge =  0 Multiplicity = 1

 SCF Done:  E(RHF) =  -226.394645552     A.U. after   12 cycles
 SCF Done:  E(RHF) =  -226.394654406     A.U. after   11 cycles
 SCF Done:  E(RHF) =  -226.394662781     A.U. after   10 cycles
 SCF Done:  E(RHF) =  -226.394662853     A.U. after    9 cycles
 SCF Done:  E(RHF) =  -226.394662860     A.U. after    8 cycles
 Optimization completed.
    -- Stationary point found.

                          Input orientation:
 ---------------------------------------------------------------------
 Center     Atomic      Atomic             Coordinates (Angstroms)
 Number     Number       Type             X           Y           Z
 ---------------------------------------------------------------------
      1          6           0        0.742652    0.576998    0.047133
      2          6           0        1.426510   -0.535384   -0.040418
      3          1           0        1.176027    1.555044    0.081407
      4          1           0        2.496121   -0.505538   -0.051525
      5          1           0        0.942779   -1.486424   -0.099361
      6          8           0       -0.652913    0.703788    0.048690
      7          8           0       -1.278394   -0.563355    0.409035
      8          1           0       -1.190463   -0.559093    1.380022
 ---------------------------------------------------------------------

 Alpha  occ. eigenvalues --  -20.54188 -20.53174 -11.24816 -11.16895  -1.48391
 Alpha  occ. eigenvalues --   -1.24042  -1.03804  -0.80296  -0.69901  -0.69709
 Alpha  occ. eigenvalues --   -0.64189  -0.57964  -0.55630  -0.51107  -0.48584
 Alpha  occ. eigenvalues --   -0.36910
 Alpha virt. eigenvalues --    0.18158   0.23392   0.28492   0.29308   0.32950
 Alpha virt. eigenvalues --    0.37022   0.49507   0.58073   0.88315   0.96443
 Alpha virt. eigenvalues --    1.00327   1.06519   1.09767   1.11245   1.24206

 Mulliken charges:
               1
     1  C    0.124860
     2  C   -0.506411
     3  H    0.260148
     4  H    0.225104
     5  H    0.251643
     6  O   -0.394805
     7  O   -0.370180
     8  H    0.409640
 Sum of Mulliken charges =   0.00000

 Dipole moment (field-independent basis, Debye):
    X=              1.8256    Y=             -0.1768    Z=              2.0840  Tot=              2.7762
 Quadrupole moment (field-independent basis, Debye-Ang):
   XX=            -23.6838   YY=            -22.3575   ZZ=            -21.8268
   XY=              1.4817   XZ=             -2.4990   YZ=             -0.9700

 Normal termination of Gaussian 09 at Fri Apr 12 17:40:18 2019.
