 Gaussian 09, Revision D.01,
 Gaussian 09:  AS64L-G09RevD.01 24-Apr-2013

 --------------------------------------------------------------------
 #p hf 3-21g scf=tight NoSymmetry guess=read opt=(tight,modredundant)
 --------------------------------------------------------------------

 -----------------------------------
 Geometry optimization at the 2D-PES
 -----------------------------------
 Symbolic Z-matrix:
 Charge =  0 Multiplicity = 1

 SCF Done:  E(RHF) =  -226.385758903     A.U. after   13 cycles
 SCF Done:  E(RHF) =  -226.385773481     A.U. after   12 cycles
 SCF Done:  E(RHF) =  -226.385783700     A.U. after   12 cycles
 SCF Done:  E(RHF) =  -226.385783900     A.U. after   10 cycles
 SCF Done:  E(RHF) =  -226.385783932     A.U. after    9 cycles
 SCF Done:  E(RHF) =  -226.385783933     A.U. after    6 cycles
 Optimization completed.
    -- Stationary point found.

                          Input orientation:
 ---------------------------------------------------------------------
 Center     Atomic      Atomic             Coordinates (Angstroms)
 Number     Number       Type             X           Y           Z
 ---------------------------------------------------------------------
      1          6           0        0.748811    0.598529    0.049223
      2          6           0        1.412441   -0.528470   -0.026066
      3          1           0        1.203167    1.567246    0.070906
      4          1           0        2.482913   -0.529469   -0.030694
      5          1           0        0.904037   -1.470094   -0.072975
      6          8           0       -0.655833    0.694077    0.029195
      7          8           0       -1.252296   -0.232652    1.002269
      8          1           0       -0.654741   -0.164305    1.770933
 ---------------------------------------------------------------------

 Alpha  occ. eigenvalues --  -20.53324 -20.52509 -11.25104 -11.18586  -1.47237
 Alpha  occ. eigenvalues --   -1.23563  -1.04691  -0.80973  -0.70874  -0.68656
 Alpha  occ. eigenvalues --   -0.61986  -0.58046  -0.57527  -0.51653  -0.46438
 Alpha  occ. eigenvalues --   -0.38285
 Alpha virt. eigenvalues --    0.14967   0.25501   0.27925   0.28763   0.31318
 Alpha virt. eigenvalues --    0.36789   0.49740   0.56063   0.87453   0.96823
 Alpha virt. eigenvalues --    0.98321   1.05283   1.08797   1.10704   1.24113

 Mulliken charges:
               1
     1  C    0.085535
     2  C   -0.476886
     3  H    0.255262
     4  H    0.232597
     5  H    0.256503
     6  O   -0.383433
     7  O   -0.369785
     8  H    0.400208
 Sum of Mulliken charges =   0.00000

 Dipole moment (field-independent basis, Debye):
    X=              3.1430    Y=             -0.1642    Z=              1.6841  Tot=              3.5695
 Quadrupole moment (field-independent basis, Debye-Ang):
   XX=            -25.2385   YY=            -22.3130   ZZ=            -21.0485
   XY=              0.9084   XZ=              0.1159   YZ=              0.1183

 Normal termination of Gaussian 09 at Fri Apr 12 17:06:46 2019.
