 Gaussian 09, Revision D.01,
 Gaussian 09:  AS64L-G09RevD.01 24-Apr-2013

 --------------------------------------------------------------------
 #p hf 3-21g scf=tight NoSymmetry guess=read opt=(tight,modredundant)
 --------------------------------------------------------------------

 -----------------------------------
 Geometry optimization at the 2D-PES
 -----------------------------------
 Symbolic Z-matrix:
 Charge =  0 Multiplicity = 1

 SCF Done:  E(RHF) =  -226.385271943     A.U. after   13 cycles
 SCF Done:  E(RHF) =  -226.385288387     A.U. after   12 cycles
 SCF Done:  E(RHF) =  -226.385302105     A.U. after   11 cycles
 SCF Done:  E(RHF) =  -226.385302209     A.U. after    9 cycles
 SCF Done:  E(RHF) =  -226.385302230     A.U. after    8 cycles
 SCF Done:  E(RHF) =  -226.385302231     A.U. after    7 cycles
 Optimization completed.
    -- Stationary point found.

                          Input orientation:
 ---------------------------------------------------------------------
 Center     Atomic      Atomic             Coordinates (Angstroms)
 Number     Number       Type             X           Y           Z
 ---------------------------------------------------------------------
      1          6           0        0.753248    0.629042    0.059956
      2          6           0        1.381343   -0.516553    0.003695
      3          1           0        1.247937    1.580697    0.093964
      4          1           0        2.450728   -0.555354   -0.029562
      5          1           0        0.836656   -1.437711   -0.027272
      6          8           0       -0.648417    0.689701   -0.016670
      7          8           0       -1.166937    1.511944    1.085959
      8          1           0       -0.631637    2.326323    1.039347
 ---------------------------------------------------------------------

 Alpha  occ. eigenvalues --  -20.53591 -20.52566 -11.25069 -11.18313  -1.47394
 Alpha  occ. eigenvalues --   -1.23903  -1.04079  -0.81444  -0.70569  -0.68539
 Alpha  occ. eigenvalues --   -0.63314  -0.57650  -0.56793  -0.50850  -0.47407
 Alpha  occ. eigenvalues --   -0.38033
 Alpha virt. eigenvalues --    0.15848   0.24414   0.25576   0.30739   0.33723
 Alpha virt. eigenvalues --    0.35201   0.50085   0.56160   0.88674   0.96119
 Alpha virt. eigenvalues --    0.99081   1.05746   1.09810   1.10853   1.24722

 Mulliken charges:
               1
     1  C    0.117014
     2  C   -0.466050
     3  H    0.220541
     4  H    0.230395
     5  H    0.254856
     6  O   -0.382950
     7  O   -0.369829
     8  H    0.396023
 Sum of Mulliken charges =   0.00000

 Dipole moment (field-independent basis, Debye):
    X=              3.0144    Y=              1.4074    Z=              0.0827  Tot=              3.3278
 Quadrupole moment (field-independent basis, Debye-Ang):
   XX=            -24.8603   YY=            -15.5500   ZZ=            -25.9651
   XY=              1.5920   XZ=              1.0746   YZ=              1.9276

 Normal termination of Gaussian 09 at Fri Apr 12 16:08:28 2019.
