 Gaussian 09, Revision D.01,
 Gaussian 09:  AS64L-G09RevD.01 24-Apr-2013

 --------------------------------------------------------------------
 #p hf 3-21g scf=tight NoSymmetry guess=read opt=(tight,modredundant)
 --------------------------------------------------------------------

 -----------------------------------
 Geometry optimization at the 2D-PES
 -----------------------------------
 Symbolic Z-matrix:
 Charge =  0 Multiplicity = 1

 SCF Done:  E(RHF) =  -226.392686372     A.U. after   13 cycles
 SCF Done:  E(RHF) =  -226.392686798     A.U. after   10 cycles
 SCF Done:  E(RHF) =  -226.392686977     A.U. after    9 cycles
 SCF Done:  E(RHF) =  -226.392686986     A.U. after    7 cycles
 Optimization completed.
    -- Stationary point found.

                          Input orientation:
 ---------------------------------------------------------------------
 Center     Atomic      Atomic             Coordinates (Angstroms)
 Number     Number       Type             X           Y           Z
 ---------------------------------------------------------------------
      1          6           0        0.730822    0.607067    0.051449
      2          6           0        1.387001   -0.522004   -0.019125
      3          1           0        1.195155    1.569977    0.101827
      4          1           0        2.457688   -0.529399   -0.011121
      5          1           0        0.874890   -1.461206   -0.056956
      6          8           0       -0.671443    0.693967    0.007625
      7          8           0       -1.199807   -0.080115    1.147557
      8          1           0       -2.130919    0.196606    1.096419
 ---------------------------------------------------------------------

 Alpha  occ. eigenvalues --  -20.52307 -20.51743 -11.23580 -11.17047  -1.46127
 Alpha  occ. eigenvalues --   -1.23030  -1.02910  -0.78831  -0.70542  -0.65882
 Alpha  occ. eigenvalues --   -0.64297  -0.59029  -0.54482  -0.50932  -0.44847
 Alpha  occ. eigenvalues --   -0.37131
 Alpha virt. eigenvalues --    0.16130   0.26622   0.29403   0.30560   0.32534
 Alpha virt. eigenvalues --    0.37125   0.50159   0.57291   0.89040   0.97665
 Alpha virt. eigenvalues --    0.99432   1.07177   1.10594   1.12413   1.23829

 Mulliken charges:
               1
     1  C    0.139157
     2  C   -0.459356
     3  H    0.242213
     4  H    0.224192
     5  H    0.249463
     6  O   -0.423601
     7  O   -0.388204
     8  H    0.416136
 Sum of Mulliken charges =   0.00000

 Dipole moment (field-independent basis, Debye):
    X=             -0.0140    Y=              0.2254    Z=              0.1968  Tot=              0.2996
 Quadrupole moment (field-independent basis, Debye-Ang):
   XX=            -16.0133   YY=            -22.2587   ZZ=            -25.8645
   XY=              0.1588   XZ=             -2.1857   YZ=              0.9830

 Normal termination of Gaussian 09 at Fri Apr 12 17:01:01 2019.
