 Gaussian 09, Revision D.01,
 Gaussian 09:  AS64L-G09RevD.01 24-Apr-2013

 --------------------------------------------------------------------
 #p hf 3-21g scf=tight NoSymmetry guess=read opt=(tight,modredundant)
 --------------------------------------------------------------------

 -----------------------------------
 Geometry optimization at the 2D-PES
 -----------------------------------
 Symbolic Z-matrix:
 Charge =  0 Multiplicity = 1

 SCF Done:  E(RHF) =  -226.391476181     A.U. after   12 cycles
 SCF Done:  E(RHF) =  -226.391481895     A.U. after   11 cycles
 SCF Done:  E(RHF) =  -226.391485082     A.U. after   10 cycles
 SCF Done:  E(RHF) =  -226.391485134     A.U. after    8 cycles
 SCF Done:  E(RHF) =  -226.391485138     A.U. after    6 cycles
 Optimization completed.
    -- Stationary point found.

                          Input orientation:
 ---------------------------------------------------------------------
 Center     Atomic      Atomic             Coordinates (Angstroms)
 Number     Number       Type             X           Y           Z
 ---------------------------------------------------------------------
      1          6           0        0.728862    0.616305    0.046652
      2          6           0        1.380623   -0.516179   -0.009122
      3          1           0        1.197868    1.575018    0.115677
      4          1           0        2.451301   -0.531965    0.002027
      5          1           0        0.865551   -1.453772   -0.064054
      6          8           0       -0.678568    0.677494   -0.005965
      7          8           0       -1.182208    0.352172    1.343131
      8          1           0       -1.946237   -0.195922    1.095848
 ---------------------------------------------------------------------

 Alpha  occ. eigenvalues --  -20.52210 -20.51619 -11.23714 -11.17809  -1.46040
 Alpha  occ. eigenvalues --   -1.22922  -1.03317  -0.79116  -0.69394  -0.68314
 Alpha  occ. eigenvalues --   -0.64052  -0.57895  -0.55385  -0.50081  -0.44714
 Alpha  occ. eigenvalues --   -0.38253
 Alpha virt. eigenvalues --    0.15254   0.27064   0.29373   0.30534   0.31592
 Alpha virt. eigenvalues --    0.36747   0.49670   0.56696   0.88762   0.97388
 Alpha virt. eigenvalues --    0.98729   1.06732   1.09936   1.12744   1.23317

 Mulliken charges:
               1
     1  C    0.140455
     2  C   -0.452714
     3  H    0.240680
     4  H    0.228831
     5  H    0.236590
     6  O   -0.419322
     7  O   -0.387213
     8  H    0.412694
 Sum of Mulliken charges =   0.00000

 Dipole moment (field-independent basis, Debye):
    X=              0.4438    Y=             -1.4411    Z=             -0.2008  Tot=              1.5212
 Quadrupole moment (field-independent basis, Debye-Ang):
   XX=            -17.5944   YY=            -22.3863   ZZ=            -26.8991
   XY=              3.1180   XZ=             -1.2329   YZ=             -1.0991

 Normal termination of Gaussian 09 at Fri Apr 12 16:44:12 2019.
