 Gaussian 09, Revision D.01,
 Gaussian 09:  AS64L-G09RevD.01 24-Apr-2013

 --------------------------------------------------------------------
 #p hf 3-21g scf=tight NoSymmetry guess=read opt=(tight,modredundant)
 --------------------------------------------------------------------

 -----------------------------------
 Geometry optimization at the 2D-PES
 -----------------------------------
 Symbolic Z-matrix:
 Charge =  0 Multiplicity = 1

 SCF Done:  E(RHF) =  -226.393100350     A.U. after   13 cycles
 SCF Done:  E(RHF) =  -226.393106057     A.U. after   11 cycles
 SCF Done:  E(RHF) =  -226.393109142     A.U. after   10 cycles
 SCF Done:  E(RHF) =  -226.393109203     A.U. after    8 cycles
 SCF Done:  E(RHF) =  -226.393109210     A.U. after    6 cycles
 Optimization completed.
    -- Stationary point found.

                          Input orientation:
 ---------------------------------------------------------------------
 Center     Atomic      Atomic             Coordinates (Angstroms)
 Number     Number       Type             X           Y           Z
 ---------------------------------------------------------------------
      1          6           0        0.728135    0.627303    0.041555
      2          6           0        1.371966   -0.509900    0.000319
      3          1           0        1.196329    1.585662    0.126770
      4          1           0        2.442518   -0.535542    0.011221
      5          1           0        0.841721   -1.438359   -0.057578
      6          8           0       -0.678884    0.666103   -0.024999
      7          8           0       -1.149943    0.833764    1.362641
      8          1           0       -1.763139    1.579420    1.243941
 ---------------------------------------------------------------------

 Alpha  occ. eigenvalues --  -20.52415 -20.51647 -11.23649 -11.17641  -1.46257
 Alpha  occ. eigenvalues --   -1.22981  -1.03097  -0.79330  -0.69768  -0.67321
 Alpha  occ. eigenvalues --   -0.64724  -0.57416  -0.55254  -0.50048  -0.44913
 Alpha  occ. eigenvalues --   -0.38298
 Alpha virt. eigenvalues --    0.15731   0.27144   0.28865   0.31080   0.32263
 Alpha virt. eigenvalues --    0.36209   0.49248   0.56814   0.88940   0.97505
 Alpha virt. eigenvalues --    0.98858   1.07192   1.10471   1.12921   1.22781

 Mulliken charges:
               1
     1  C    0.136716
     2  C   -0.452198
     3  H    0.229653
     4  H    0.226360
     5  H    0.250436
     6  O   -0.411812
     7  O   -0.389428
     8  H    0.410273
 Sum of Mulliken charges =   0.00000

 Dipole moment (field-independent basis, Debye):
    X=              0.7585    Y=              1.3206    Z=              0.0445  Tot=              1.5236
 Quadrupole moment (field-independent basis, Debye-Ang):
   XX=            -19.0621   YY=            -18.1625   ZZ=            -26.3257
   XY=             -3.0487   XZ=             -1.4337   YZ=              2.2158

 Normal termination of Gaussian 09 at Fri Apr 12 16:30:41 2019.
