 Gaussian 09, Revision D.01,
 Gaussian 09:  AS64L-G09RevD.01 24-Apr-2013

 --------------------------------------------------------------------
 #p hf 3-21g scf=tight NoSymmetry guess=read opt=(tight,modredundant)
 --------------------------------------------------------------------

 -----------------------------------
 Geometry optimization at the 2D-PES
 -----------------------------------
 Symbolic Z-matrix:
 Charge =  0 Multiplicity = 1

 SCF Done:  E(RHF) =  -226.387040629     A.U. after   13 cycles
 SCF Done:  E(RHF) =  -226.387047169     A.U. after   11 cycles
 SCF Done:  E(RHF) =  -226.387054009     A.U. after   10 cycles
 SCF Done:  E(RHF) =  -226.387054020     A.U. after    8 cycles
 SCF Done:  E(RHF) =  -226.387054024     A.U. after    6 cycles
 Optimization completed.
    -- Stationary point found.

                          Input orientation:
 ---------------------------------------------------------------------
 Center     Atomic      Atomic             Coordinates (Angstroms)
 Number     Number       Type             X           Y           Z
 ---------------------------------------------------------------------
      1          6           0        0.743729    0.616512    0.043877
      2          6           0        1.390018   -0.518814   -0.011309
      3          1           0        1.217634    1.576352    0.092840
      4          1           0        2.460871   -0.542373   -0.006771
      5          1           0        0.861443   -1.449038   -0.059385
      6          8           0       -0.669050    0.680216   -0.002167
      7          8           0       -1.203463    0.366546    1.332087
      8          1           0       -0.945823    1.148750    1.853898
 ---------------------------------------------------------------------

 Alpha  occ. eigenvalues --  -20.52605 -20.51936 -11.24098 -11.18463  -1.46493
 Alpha  occ. eigenvalues --   -1.22933  -1.03910  -0.80476  -0.69480  -0.68771
 Alpha  occ. eigenvalues --   -0.61579  -0.59244  -0.56881  -0.48575  -0.45786
 Alpha  occ. eigenvalues --   -0.39060
 Alpha virt. eigenvalues --    0.14520   0.26651   0.28324   0.29940   0.31742
 Alpha virt. eigenvalues --    0.36298   0.49510   0.56069   0.87915   0.96690
 Alpha virt. eigenvalues --    0.98530   1.06150   1.09471   1.10871   1.25180

 Mulliken charges:
               1
     1  C    0.089354
     2  C   -0.440323
     3  H    0.232516
     4  H    0.228857
     5  H    0.258069
     6  O   -0.390269
     7  O   -0.376482
     8  H    0.398277
 Sum of Mulliken charges =   0.00000

 Dipole moment (field-independent basis, Debye):
    X=              2.6122    Y=              1.1389    Z=              1.2906  Tot=              3.1283
 Quadrupole moment (field-independent basis, Debye-Ang):
   XX=            -24.0283   YY=            -19.6803   ZZ=            -22.0766
   XY=             -0.3871   XZ=             -0.3992   YZ=              3.8850

 Normal termination of Gaussian 09 at Fri Apr 12 16:47:42 2019.
