 Gaussian 09, Revision D.01,
 Gaussian 09:  AS64L-G09RevD.01 24-Apr-2013

 --------------------------------------------------------------------
 #p hf 3-21g scf=tight NoSymmetry guess=read opt=(tight,modredundant)
 --------------------------------------------------------------------

 -----------------------------------
 Geometry optimization at the 2D-PES
 -----------------------------------
 Symbolic Z-matrix:
 Charge =  0 Multiplicity = 1

 SCF Done:  E(RHF) =  -226.383729031     A.U. after   13 cycles
 SCF Done:  E(RHF) =  -226.383741882     A.U. after   12 cycles
 SCF Done:  E(RHF) =  -226.383755394     A.U. after   12 cycles
 SCF Done:  E(RHF) =  -226.383755474     A.U. after    9 cycles
 SCF Done:  E(RHF) =  -226.383755479     A.U. after    7 cycles
 Optimization completed.
    -- Stationary point found.

                          Input orientation:
 ---------------------------------------------------------------------
 Center     Atomic      Atomic             Coordinates (Angstroms)
 Number     Number       Type             X           Y           Z
 ---------------------------------------------------------------------
      1          6           0        0.754421    0.626050    0.052823
      2          6           0        1.385291   -0.518321    0.000490
      3          1           0        1.245662    1.579919    0.083869
      4          1           0        2.454993   -0.555985   -0.030199
      5          1           0        0.841609   -1.440115   -0.031887
      6          8           0       -0.649465    0.684874   -0.013848
      7          8           0       -1.180046    1.308668    1.211257
      8          1           0       -0.556232    2.034783    1.399756
 ---------------------------------------------------------------------

 Alpha  occ. eigenvalues --  -20.53324 -20.52296 -11.24988 -11.18727  -1.46980
 Alpha  occ. eigenvalues --   -1.23714  -1.04275  -0.81513  -0.70621  -0.68483
 Alpha  occ. eigenvalues --   -0.62164  -0.58215  -0.57061  -0.51070  -0.46282
 Alpha  occ. eigenvalues --   -0.38583
 Alpha virt. eigenvalues --    0.14914   0.25365   0.26084   0.30381   0.33020
 Alpha virt. eigenvalues --    0.35233   0.49793   0.55871   0.88218   0.96064
 Alpha virt. eigenvalues --    0.99006   1.05939   1.09645   1.10696   1.24670

 Mulliken charges:
               1
     1  C    0.097833
     2  C   -0.454872
     3  H    0.223987
     4  H    0.231247
     5  H    0.257406
     6  O   -0.379410
     7  O   -0.371578
     8  H    0.395388
 Sum of Mulliken charges =   0.00000

 Dipole moment (field-independent basis, Debye):
    X=              3.2634    Y=              1.1179    Z=              0.5382  Tot=              3.4913
 Quadrupole moment (field-independent basis, Debye-Ang):
   XX=            -25.0209   YY=            -17.0798   ZZ=            -24.6958
   XY=              1.7970   XZ=              1.1759   YZ=              2.9545

 Normal termination of Gaussian 09 at Fri Apr 12 16:18:50 2019.
