 Gaussian 09, Revision D.01,
 Gaussian 09:  AS64L-G09RevD.01 24-Apr-2013

 --------------------------------------------------------------------
 #p hf 3-21g scf=tight NoSymmetry guess=read opt=(tight,modredundant)
 --------------------------------------------------------------------

 -----------------------------------
 Geometry optimization at the 2D-PES
 -----------------------------------
 Symbolic Z-matrix:
 Charge =  0 Multiplicity = 1

 SCF Done:  E(RHF) =  -226.388471655     A.U. after   13 cycles
 SCF Done:  E(RHF) =  -226.388478756     A.U. after   12 cycles
 SCF Done:  E(RHF) =  -226.388487611     A.U. after   10 cycles
 SCF Done:  E(RHF) =  -226.388487660     A.U. after    9 cycles
 SCF Done:  E(RHF) =  -226.388487674     A.U. after    8 cycles
 SCF Done:  E(RHF) =  -226.388487675     A.U. after    7 cycles
 Optimization completed.
    -- Stationary point found.

                          Input orientation:
 ---------------------------------------------------------------------
 Center     Atomic      Atomic             Coordinates (Angstroms)
 Number     Number       Type             X           Y           Z
 ---------------------------------------------------------------------
      1          6           0        0.726805    0.631347    0.035171
      2          6           0        1.375764   -0.505303   -0.019861
      3          1           0        1.188976    1.595206    0.057585
      4          1           0        2.446318   -0.526911   -0.007944
      5          1           0        0.853127   -1.441131   -0.040287
      6          8           0       -0.684936    0.653497    0.046744
      7          8           0       -1.128471    0.965451   -1.322945
      8          1           0       -0.750554    0.227066   -1.836509
 ---------------------------------------------------------------------

 Alpha  occ. eigenvalues --  -20.53056 -20.52166 -11.24888 -11.19170  -1.47003
 Alpha  occ. eigenvalues --   -1.23306  -1.04628  -0.80560  -0.72517  -0.65923
 Alpha  occ. eigenvalues --   -0.63331  -0.59862  -0.56250  -0.50265  -0.45508
 Alpha  occ. eigenvalues --   -0.39840
 Alpha virt. eigenvalues --    0.14676   0.25409   0.27726   0.30409   0.31095
 Alpha virt. eigenvalues --    0.35855   0.48805   0.55428   0.87986   0.96432
 Alpha virt. eigenvalues --    0.98141   1.05576   1.08804   1.10643   1.24122

 Mulliken charges:
               1
     1  C    0.102013
     2  C   -0.467553
     3  H    0.248523
     4  H    0.235605
     5  H    0.245076
     6  O   -0.385455
     7  O   -0.376448
     8  H    0.398239
 Sum of Mulliken charges =   0.00000

 Dipole moment (field-independent basis, Debye):
    X=              2.8242    Y=             -1.6138    Z=             -1.1673  Tot=              3.4559
 Quadrupole moment (field-independent basis, Debye-Ang):
   XX=            -24.4153   YY=            -23.7454   ZZ=            -22.2216
   XY=              3.0181   XZ=              0.0180   YZ=              1.9101

 Normal termination of Gaussian 09 at Fri Apr 12 15:08:18 2019.
