 Gaussian 09, Revision D.01,
 Gaussian 09:  AS64L-G09RevD.01 24-Apr-2013

 --------------------------------------------------------------------
 #p hf 3-21g scf=tight NoSymmetry guess=read opt=(tight,modredundant)
 --------------------------------------------------------------------

 -----------------------------------
 Geometry optimization at the 2D-PES
 -----------------------------------
 Symbolic Z-matrix:
 Charge =  0 Multiplicity = 1

 SCF Done:  E(RHF) =  -226.390851698     A.U. after   12 cycles
 SCF Done:  E(RHF) =  -226.390864558     A.U. after   11 cycles
 SCF Done:  E(RHF) =  -226.390872170     A.U. after   10 cycles
 SCF Done:  E(RHF) =  -226.390872249     A.U. after    9 cycles
 SCF Done:  E(RHF) =  -226.390872262     A.U. after    7 cycles
 SCF Done:  E(RHF) =  -226.390872263     A.U. after    7 cycles
 Optimization completed.
    -- Stationary point found.

                          Input orientation:
 ---------------------------------------------------------------------
 Center     Atomic      Atomic             Coordinates (Angstroms)
 Number     Number       Type             X           Y           Z
 ---------------------------------------------------------------------
      1          6           0        0.737512    0.628010    0.048136
      2          6           0        1.375812   -0.511979    0.002087
      3          1           0        1.214678    1.584716    0.115811
      4          1           0        2.446193   -0.543596   -0.003059
      5          1           0        0.838827   -1.436992   -0.046897
      6          8           0       -0.670042    0.672893   -0.020798
      7          8           0       -1.160217    1.074811    1.305876
      8          1           0       -1.184429    2.045303    1.223186
 ---------------------------------------------------------------------

 Alpha  occ. eigenvalues --  -20.52932 -20.52096 -11.24142 -11.17976  -1.46870
 Alpha  occ. eigenvalues --   -1.23259  -1.03513  -0.80203  -0.69433  -0.68789
 Alpha  occ. eigenvalues --   -0.64080  -0.57396  -0.56217  -0.48107  -0.47612
 Alpha  occ. eigenvalues --   -0.38395
 Alpha virt. eigenvalues --    0.15710   0.25807   0.27718   0.31012   0.32729
 Alpha virt. eigenvalues --    0.35675   0.49222   0.56490   0.88647   0.96985
 Alpha virt. eigenvalues --    0.98493   1.06524   1.09925   1.11535   1.24921

 Mulliken charges:
               1
     1  C    0.125878
     2  C   -0.455609
     3  H    0.223630
     4  H    0.227730
     5  H    0.253143
     6  O   -0.396552
     7  O   -0.379957
     8  H    0.401737
 Sum of Mulliken charges =   0.00000

 Dipole moment (field-independent basis, Debye):
    X=              1.9592    Y=              1.7291    Z=              0.0751  Tot=              2.6141
 Quadrupole moment (field-independent basis, Debye-Ang):
   XX=            -22.8599   YY=            -15.5774   ZZ=            -26.1583
   XY=             -1.5801   XZ=              0.0271   YZ=              2.7032

 Normal termination of Gaussian 09 at Fri Apr 12 16:22:50 2019.
