 Gaussian 09, Revision D.01,
 Gaussian 09:  AS64L-G09RevD.01 24-Apr-2013

 --------------------------------------------------------------------
 #p hf 3-21g scf=tight NoSymmetry guess=read opt=(tight,modredundant)
 --------------------------------------------------------------------

 -----------------------------------
 Geometry optimization at the 2D-PES
 -----------------------------------
 Symbolic Z-matrix:
 Charge =  0 Multiplicity = 1

 SCF Done:  E(RHF) =  -226.389868674     A.U. after   13 cycles
 SCF Done:  E(RHF) =  -226.389889007     A.U. after   12 cycles
 SCF Done:  E(RHF) =  -226.389907879     A.U. after   12 cycles
 SCF Done:  E(RHF) =  -226.389908204     A.U. after    9 cycles
 SCF Done:  E(RHF) =  -226.389908263     A.U. after    9 cycles
 SCF Done:  E(RHF) =  -226.389908267     A.U. after    8 cycles
 Optimization completed.
    -- Stationary point found.

                          Input orientation:
 ---------------------------------------------------------------------
 Center     Atomic      Atomic             Coordinates (Angstroms)
 Number     Number       Type             X           Y           Z
 ---------------------------------------------------------------------
      1          6           0        0.744830    0.583337    0.046263
      2          6           0        1.424243   -0.534135   -0.033781
      3          1           0        1.183729    1.558709    0.075325
      4          1           0        2.494015   -0.513819   -0.037847
      5          1           0        0.935915   -1.483968   -0.099490
      6          8           0       -0.651689    0.697419    0.041401
      7          8           0       -1.275665   -0.488407    0.628383
      8          1           0       -0.791472   -0.594028    1.470054
 ---------------------------------------------------------------------

 Alpha  occ. eigenvalues --  -20.54121 -20.53093 -11.25389 -11.17869  -1.48209
 Alpha  occ. eigenvalues --   -1.24080  -1.04573  -0.80903  -0.71190  -0.68892
 Alpha  occ. eigenvalues --   -0.63702  -0.57200  -0.57097  -0.52097  -0.47923
 Alpha  occ. eigenvalues --   -0.37574
 Alpha virt. eigenvalues --    0.16709   0.23871   0.28068   0.28832   0.31953
 Alpha virt. eigenvalues --    0.36799   0.49561   0.57131   0.87757   0.96611
 Alpha virt. eigenvalues --    0.99435   1.05538   1.08918   1.10821   1.24263

 Mulliken charges:
               1
     1  C    0.111603
     2  C   -0.507341
     3  H    0.262980
     4  H    0.231101
     5  H    0.250082
     6  O   -0.386074
     7  O   -0.366388
     8  H    0.404037
 Sum of Mulliken charges =   0.00000

 Dipole moment (field-independent basis, Debye):
    X=              2.7212    Y=             -0.3674    Z=              1.7870  Tot=              3.2762
 Quadrupole moment (field-independent basis, Debye-Ang):
   XX=            -25.1445   YY=            -22.0368   ZZ=            -21.8615
   XY=              1.2109   XZ=             -0.8270   YZ=             -1.0006

 Normal termination of Gaussian 09 at Fri Apr 12 17:24:03 2019.
