 Gaussian 09, Revision D.01,
 Gaussian 09:  AS64L-G09RevD.01 24-Apr-2013

 --------------------------------------------------------------------
 #p hf 3-21g scf=tight NoSymmetry guess=read opt=(tight,modredundant)
 --------------------------------------------------------------------

 -----------------------------------
 Geometry optimization at the 2D-PES
 -----------------------------------
 Symbolic Z-matrix:
 Charge =  0 Multiplicity = 1

 SCF Done:  E(RHF) =  -226.389273489     A.U. after   13 cycles
 SCF Done:  E(RHF) =  -226.389286806     A.U. after   12 cycles
 SCF Done:  E(RHF) =  -226.389296729     A.U. after   10 cycles
 SCF Done:  E(RHF) =  -226.389296854     A.U. after    9 cycles
 SCF Done:  E(RHF) =  -226.389296871     A.U. after    8 cycles
 SCF Done:  E(RHF) =  -226.389296873     A.U. after    7 cycles
 Optimization completed.
    -- Stationary point found.

                          Input orientation:
 ---------------------------------------------------------------------
 Center     Atomic      Atomic             Coordinates (Angstroms)
 Number     Number       Type             X           Y           Z
 ---------------------------------------------------------------------
      1          6           0        0.728709    0.635084    0.032632
      2          6           0        1.375400   -0.502634   -0.020765
      3          1           0        1.189036    1.599676    0.061985
      4          1           0        2.445742   -0.526384    0.001344
      5          1           0        0.849507   -1.435885   -0.052343
      6          8           0       -0.681625    0.654475    0.049687
      7          8           0       -1.121524    1.194774   -1.247346
      8          1           0       -0.743456    0.554569   -1.879304
 ---------------------------------------------------------------------

 Alpha  occ. eigenvalues --  -20.53196 -20.52232 -11.24829 -11.19010  -1.47147
 Alpha  occ. eigenvalues --   -1.23405  -1.04479  -0.80589  -0.72521  -0.65886
 Alpha  occ. eigenvalues --   -0.63265  -0.59986  -0.56131  -0.50391  -0.45788
 Alpha  occ. eigenvalues --   -0.39543
 Alpha virt. eigenvalues --    0.14962   0.25786   0.27413   0.30383   0.31314
 Alpha virt. eigenvalues --    0.35739   0.48673   0.55673   0.88179   0.96531
 Alpha virt. eigenvalues --    0.98051   1.05757   1.09014   1.10576   1.24146

 Mulliken charges:
               1
     1  C    0.099113
     2  C   -0.467184
     3  H    0.249205
     4  H    0.234430
     5  H    0.247247
     6  O   -0.384131
     7  O   -0.377740
     8  H    0.399060
 Sum of Mulliken charges =   0.00000

 Dipole moment (field-independent basis, Debye):
    X=              2.7994    Y=             -1.4039    Z=             -1.3980  Tot=              3.4296
 Quadrupole moment (field-independent basis, Debye-Ang):
   XX=            -24.4323   YY=            -24.2601   ZZ=            -21.4518
   XY=              3.0204   XZ=              0.2725   YZ=              1.0828

 Normal termination of Gaussian 09 at Fri Apr 12 15:12:15 2019.
