 Gaussian 09, Revision D.01,
 Gaussian 09:  AS64L-G09RevD.01 24-Apr-2013

 --------------------------------------------------------------------
 #p hf 3-21g scf=tight NoSymmetry guess=read opt=(tight,modredundant)
 --------------------------------------------------------------------

 -----------------------------------
 Geometry optimization at the 2D-PES
 -----------------------------------
 Symbolic Z-matrix:
 Charge =  0 Multiplicity = 1

 SCF Done:  E(RHF) =  -226.390184894     A.U. after   12 cycles
 SCF Done:  E(RHF) =  -226.390196036     A.U. after   12 cycles
 SCF Done:  E(RHF) =  -226.390202238     A.U. after   10 cycles
 SCF Done:  E(RHF) =  -226.390202297     A.U. after    9 cycles
 SCF Done:  E(RHF) =  -226.390202308     A.U. after    7 cycles
 Optimization completed.
    -- Stationary point found.

                          Input orientation:
 ---------------------------------------------------------------------
 Center     Atomic      Atomic             Coordinates (Angstroms)
 Number     Number       Type             X           Y           Z
 ---------------------------------------------------------------------
      1          6           0        0.737190    0.625494    0.044203
      2          6           0        1.378564   -0.512685   -0.001214
      3          1           0        1.213169    1.582933    0.112003
      4          1           0        2.449144   -0.541873    0.000969
      5          1           0        0.844380   -1.439233   -0.053512
      6          8           0       -0.672584    0.671632   -0.017827
      7          8           0       -1.170576    0.838285    1.356366
      8          1           0       -1.202457    1.808416    1.440259
 ---------------------------------------------------------------------

 Alpha  occ. eigenvalues --  -20.52721 -20.51951 -11.24004 -11.18084  -1.46634
 Alpha  occ. eigenvalues --   -1.23076  -1.03541  -0.80128  -0.69558  -0.68441
 Alpha  occ. eigenvalues --   -0.63643  -0.57878  -0.56291  -0.47665  -0.47115
 Alpha  occ. eigenvalues --   -0.38694
 Alpha virt. eigenvalues --    0.15325   0.26129   0.28164   0.30841   0.32426
 Alpha virt. eigenvalues --    0.35874   0.49254   0.56408   0.88452   0.97032
 Alpha virt. eigenvalues --    0.98380   1.06409   1.09843   1.11582   1.25030

 Mulliken charges:
               1
     1  C    0.117693
     2  C   -0.448142
     3  H    0.224332
     4  H    0.227664
     5  H    0.254294
     6  O   -0.396830
     7  O   -0.380423
     8  H    0.401413
 Sum of Mulliken charges =   0.00000

 Dipole moment (field-independent basis, Debye):
    X=              1.9832    Y=              1.6598    Z=              0.4271  Tot=              2.6212
 Quadrupole moment (field-independent basis, Debye-Ang):
   XX=            -22.7942   YY=            -16.5963   ZZ=            -25.1852
   XY=             -1.6314   XZ=             -0.4085   YZ=              3.5259

 Normal termination of Gaussian 09 at Fri Apr 12 16:32:06 2019.
