 Gaussian 09, Revision D.01,
 Gaussian 09:  AS64L-G09RevD.01 24-Apr-2013

 --------------------------------------------------------------------
 #p hf 3-21g scf=tight NoSymmetry guess=read opt=(tight,modredundant)
 --------------------------------------------------------------------

 -----------------------------------
 Geometry optimization at the 2D-PES
 -----------------------------------
 Symbolic Z-matrix:
 Charge =  0 Multiplicity = 1

 SCF Done:  E(RHF) =  -226.388131164     A.U. after   13 cycles
 SCF Done:  E(RHF) =  -226.388144984     A.U. after   12 cycles
 SCF Done:  E(RHF) =  -226.388154639     A.U. after   10 cycles
 SCF Done:  E(RHF) =  -226.388154719     A.U. after    9 cycles
 SCF Done:  E(RHF) =  -226.388154730     A.U. after    7 cycles
 SCF Done:  E(RHF) =  -226.388154731     A.U. after    7 cycles
 Optimization completed.
    -- Stationary point found.

                          Input orientation:
 ---------------------------------------------------------------------
 Center     Atomic      Atomic             Coordinates (Angstroms)
 Number     Number       Type             X           Y           Z
 ---------------------------------------------------------------------
      1          6           0        0.742940    0.626226    0.049411
      2          6           0        1.379652   -0.514612    0.001366
      3          1           0        1.225258    1.582202    0.105656
      4          1           0        2.449978   -0.548184   -0.009083
      5          1           0        0.840604   -1.438603   -0.044373
      6          8           0       -0.664573    0.677130   -0.018052
      7          8           0       -1.172971    1.078207    1.302533
      8          1           0       -0.899766    2.012465    1.363867
 ---------------------------------------------------------------------

 Alpha  occ. eigenvalues --  -20.53045 -20.52177 -11.24415 -11.18345  -1.46912
 Alpha  occ. eigenvalues --   -1.23344  -1.03842  -0.80743  -0.69502  -0.69102
 Alpha  occ. eigenvalues --   -0.63216  -0.57571  -0.56937  -0.48928  -0.46926
 Alpha  occ. eigenvalues --   -0.38685
 Alpha virt. eigenvalues --    0.15271   0.25523   0.27238   0.30694   0.32793
 Alpha virt. eigenvalues --    0.35508   0.49445   0.56207   0.88435   0.96589
 Alpha virt. eigenvalues --    0.98635   1.06093   1.09682   1.10929   1.25548

 Mulliken charges:
               1
     1  C    0.111741
     2  C   -0.451805
     3  H    0.222228
     4  H    0.229084
     5  H    0.255537
     6  O   -0.388530
     7  O   -0.375521
     8  H    0.397266
 Sum of Mulliken charges =   0.00000

 Dipole moment (field-independent basis, Debye):
    X=              2.5795    Y=              1.5615    Z=              0.3392  Tot=              3.0343
 Quadrupole moment (field-independent basis, Debye-Ang):
   XX=            -24.0887   YY=            -16.0092   ZZ=            -25.3761
   XY=             -0.2233   XZ=              0.5014   YZ=              3.1793

 Normal termination of Gaussian 09 at Fri Apr 12 16:22:06 2019.
