 Gaussian 09, Revision D.01,
 Gaussian 09:  AS64L-G09RevD.01 24-Apr-2013

 --------------------------------------------------------------------
 #p hf 3-21g scf=tight NoSymmetry guess=read opt=(tight,modredundant)
 --------------------------------------------------------------------

 -----------------------------------
 Geometry optimization at the 2D-PES
 -----------------------------------
 Symbolic Z-matrix:
 Charge =  0 Multiplicity = 1

 SCF Done:  E(RHF) =  -226.392300873     A.U. after   13 cycles
 SCF Done:  E(RHF) =  -226.392303384     A.U. after   10 cycles
 SCF Done:  E(RHF) =  -226.392305452     A.U. after   10 cycles
 SCF Done:  E(RHF) =  -226.392305472     A.U. after    8 cycles
 SCF Done:  E(RHF) =  -226.392305473     A.U. after    6 cycles
 Optimization completed.
    -- Stationary point found.

                          Input orientation:
 ---------------------------------------------------------------------
 Center     Atomic      Atomic             Coordinates (Angstroms)
 Number     Number       Type             X           Y           Z
 ---------------------------------------------------------------------
      1          6           0        0.732238    0.606270    0.051728
      2          6           0        1.388980   -0.522262   -0.019258
      3          1           0        1.196778    1.569465    0.100226
      4          1           0        2.459731   -0.528779   -0.012390
      5          1           0        0.877393   -1.461787   -0.058622
      6          8           0       -0.671084    0.692834    0.009967
      7          8           0       -1.204657   -0.078318    1.147870
      8          1           0       -2.019150    0.428298    1.309068
 ---------------------------------------------------------------------

 Alpha  occ. eigenvalues --  -20.52340 -20.51756 -11.23595 -11.17063  -1.46190
 Alpha  occ. eigenvalues --   -1.23011  -1.02936  -0.78946  -0.70654  -0.65068
 Alpha  occ. eigenvalues --   -0.64502  -0.59815  -0.54695  -0.50113  -0.45003
 Alpha  occ. eigenvalues --   -0.37292
 Alpha virt. eigenvalues --    0.16156   0.26324   0.29425   0.30652   0.32567
 Alpha virt. eigenvalues --    0.37072   0.50126   0.57266   0.88940   0.97655
 Alpha virt. eigenvalues --    0.99188   1.07130   1.10592   1.12679   1.23686

 Mulliken charges:
               1
     1  C    0.136437
     2  C   -0.459225
     3  H    0.240597
     4  H    0.223966
     5  H    0.251557
     6  O   -0.421273
     7  O   -0.387684
     8  H    0.415625
 Sum of Mulliken charges =   0.00000

 Dipole moment (field-independent basis, Debye):
    X=              0.2358    Y=              0.7052    Z=              0.6486  Tot=              0.9867
 Quadrupole moment (field-independent basis, Debye-Ang):
   XX=            -17.1169   YY=            -21.9157   ZZ=            -24.7245
   XY=             -0.8987   XZ=             -2.8977   YZ=              1.7635

 Normal termination of Gaussian 09 at Fri Apr 12 17:01:24 2019.
