 Gaussian 09, Revision D.01,
 Gaussian 09:  AS64L-G09RevD.01 24-Apr-2013

 --------------------------------------------------------------------
 #p hf 3-21g scf=tight NoSymmetry guess=read opt=(tight,modredundant)
 --------------------------------------------------------------------

 -----------------------------------
 Geometry optimization at the 2D-PES
 -----------------------------------
 Symbolic Z-matrix:
 Charge =  0 Multiplicity = 1

 SCF Done:  E(RHF) =  -226.392022211     A.U. after   13 cycles
 SCF Done:  E(RHF) =  -226.392035229     A.U. after   11 cycles
 SCF Done:  E(RHF) =  -226.392043843     A.U. after   10 cycles
 SCF Done:  E(RHF) =  -226.392043922     A.U. after    9 cycles
 SCF Done:  E(RHF) =  -226.392043930     A.U. after    8 cycles
 SCF Done:  E(RHF) =  -226.392043931     A.U. after    7 cycles
 Optimization completed.
    -- Stationary point found.

                          Input orientation:
 ---------------------------------------------------------------------
 Center     Atomic      Atomic             Coordinates (Angstroms)
 Number     Number       Type             X           Y           Z
 ---------------------------------------------------------------------
      1          6           0        0.741412    0.635451    0.056793
      2          6           0        1.374308   -0.507858    0.001419
      3          1           0        1.219447    1.591284    0.111559
      4          1           0        2.443903   -0.539291   -0.026443
      5          1           0        0.836988   -1.433369   -0.029860
      6          8           0       -0.661216    0.681409   -0.014155
      7          8           0       -1.123970    1.691634    0.940803
      8          1           0       -1.129488    2.494453    0.388895
 ---------------------------------------------------------------------

 Alpha  occ. eigenvalues --  -20.53620 -20.52724 -11.24566 -11.17366  -1.47745
 Alpha  occ. eigenvalues --   -1.23860  -1.03361  -0.80368  -0.70202  -0.68704
 Alpha  occ. eigenvalues --   -0.65017  -0.56523  -0.55457  -0.51069  -0.48300
 Alpha  occ. eigenvalues --   -0.37181
 Alpha virt. eigenvalues --    0.17324   0.24183   0.26618   0.31491   0.33398
 Alpha virt. eigenvalues --    0.35480   0.49393   0.56905   0.89358   0.96797
 Alpha virt. eigenvalues --    0.99124   1.06542   1.10231   1.11444   1.24356

 Mulliken charges:
               1
     1  C    0.146533
     2  C   -0.484077
     3  H    0.231147
     4  H    0.227621
     5  H    0.248298
     6  O   -0.398259
     7  O   -0.376013
     8  H    0.404751
 Sum of Mulliken charges =   0.00000

 Dipole moment (field-independent basis, Debye):
    X=              1.8374    Y=              1.6949    Z=             -0.9368  Tot=              2.6695
 Quadrupole moment (field-independent basis, Debye-Ang):
   XX=            -23.0610   YY=            -14.6755   ZZ=            -27.2772
   XY=             -0.9111   XZ=              1.1880   YZ=             -1.0729

 Normal termination of Gaussian 09 at Fri Apr 12 16:03:23 2019.
