 Gaussian 09, Revision D.01,
 Gaussian 09:  AS64L-G09RevD.01 24-Apr-2013

 --------------------------------------------------------------------
 #p hf 3-21g scf=tight NoSymmetry guess=read opt=(tight,modredundant)
 --------------------------------------------------------------------

 -----------------------------------
 Geometry optimization at the 2D-PES
 -----------------------------------
 Symbolic Z-matrix:
 Charge =  0 Multiplicity = 1

 SCF Done:  E(RHF) =  -226.381301346     A.U. after   13 cycles
 SCF Done:  E(RHF) =  -226.381316867     A.U. after   11 cycles
 SCF Done:  E(RHF) =  -226.381343105     A.U. after   10 cycles
 SCF Done:  E(RHF) =  -226.381343313     A.U. after   10 cycles
 SCF Done:  E(RHF) =  -226.381343373     A.U. after    8 cycles
 SCF Done:  E(RHF) =  -226.381343375     A.U. after    6 cycles
 Optimization completed.
    -- Stationary point found.

                          Input orientation:
 ---------------------------------------------------------------------
 Center     Atomic      Atomic             Coordinates (Angstroms)
 Number     Number       Type             X           Y           Z
 ---------------------------------------------------------------------
      1          6           0        0.740328    0.586838    0.020080
      2          6           0        1.438221   -0.524292    0.013783
      3          1           0        1.180985    1.559301    0.087090
      4          1           0        2.506623   -0.483777    0.049496
      5          1           0        0.990947   -1.499153    0.006646
      6          8           0       -0.653263    0.689655   -0.014964
      7          8           0       -1.295028   -0.274536   -0.918832
      8          1           0       -0.582515   -0.887034   -1.174269
 ---------------------------------------------------------------------

 Alpha  occ. eigenvalues --  -20.53938 -20.52890 -11.26330 -11.18924  -1.47758
 Alpha  occ. eigenvalues --   -1.24457  -1.05518  -0.81312  -0.73206  -0.68001
 Alpha  occ. eigenvalues --   -0.63004  -0.59331  -0.55068  -0.53998  -0.47579
 Alpha  occ. eigenvalues --   -0.37992
 Alpha virt. eigenvalues --    0.15429   0.22763   0.27362   0.28383   0.33275
 Alpha virt. eigenvalues --    0.36695   0.49884   0.57354   0.87540   0.95402
 Alpha virt. eigenvalues --    1.00779   1.05042   1.07929   1.11115   1.23260

 Mulliken charges:
               1
     1  C    0.134137
     2  C   -0.525737
     3  H    0.267618
     4  H    0.242113
     5  H    0.226338
     6  O   -0.389556
     7  O   -0.364146
     8  H    0.409233
 Sum of Mulliken charges =   0.00000

 Dipole moment (field-independent basis, Debye):
    X=              3.2446    Y=             -1.2467    Z=             -0.5712  Tot=              3.5225
 Quadrupole moment (field-independent basis, Debye-Ang):
   XX=            -25.6287   YY=            -20.6583   ZZ=            -24.5805
   XY=              1.9187   XZ=             -0.7482   YZ=              1.7970

 Normal termination of Gaussian 09 at Fri Apr 12 14:53:51 2019.
