 Gaussian 09, Revision D.01,
 Gaussian 09:  AS64L-G09RevD.01 24-Apr-2013

 --------------------------------------------------------------------
 #p hf 3-21g scf=tight NoSymmetry guess=read opt=(tight,modredundant)
 --------------------------------------------------------------------

 -----------------------------------
 Geometry optimization at the 2D-PES
 -----------------------------------
 Symbolic Z-matrix:
 Charge =  0 Multiplicity = 1

 SCF Done:  E(RHF) =  -226.395608263     A.U. after   13 cycles
 SCF Done:  E(RHF) =  -226.395614297     A.U. after   11 cycles
 SCF Done:  E(RHF) =  -226.395617926     A.U. after   10 cycles
 SCF Done:  E(RHF) =  -226.395617984     A.U. after    8 cycles
 SCF Done:  E(RHF) =  -226.395617988     A.U. after    7 cycles
 SCF Done:  E(RHF) =  -226.395617989     A.U. after    6 cycles
 Optimization completed.
    -- Stationary point found.

                          Input orientation:
 ---------------------------------------------------------------------
 Center     Atomic      Atomic             Coordinates (Angstroms)
 Number     Number       Type             X           Y           Z
 ---------------------------------------------------------------------
      1          6           0        0.724833    0.638468    0.022428
      2          6           0        1.367875   -0.501031   -0.020765
      3          1           0        1.181932    1.602135    0.077253
      4          1           0        2.436967   -0.521569    0.026065
      5          1           0        0.846233   -1.434126   -0.084980
      6          8           0       -0.676388    0.669519    0.053827
      7          8           0       -1.076303    1.915708   -0.610181
      8          1           0       -1.736326    1.570296   -1.234719
 ---------------------------------------------------------------------

 Alpha  occ. eigenvalues --  -20.53488 -20.52545 -11.24265 -11.16790  -1.47581
 Alpha  occ. eigenvalues --   -1.23891  -1.02897  -0.79753  -0.71338  -0.66594
 Alpha  occ. eigenvalues --   -0.62902  -0.61003  -0.55443  -0.49549  -0.48063
 Alpha  occ. eigenvalues --   -0.36609
 Alpha virt. eigenvalues --    0.18151   0.24023   0.27779   0.31753   0.33575
 Alpha virt. eigenvalues --    0.35930   0.49680   0.57411   0.90106   0.97042
 Alpha virt. eigenvalues --    0.99985   1.06796   1.10733   1.12813   1.21937

 Mulliken charges:
               1
     1  C    0.160022
     2  C   -0.501172
     3  H    0.259140
     4  H    0.227189
     5  H    0.237577
     6  O   -0.412972
     7  O   -0.388496
     8  H    0.418712
 Sum of Mulliken charges =   0.00000

 Dipole moment (field-independent basis, Debye):
    X=              0.3862    Y=             -0.4091    Z=             -1.4774  Tot=              1.5809
 Quadrupole moment (field-independent basis, Debye-Ang):
   XX=            -19.0543   YY=            -24.3423   ZZ=            -23.1009
   XY=             -0.1161   XZ=              3.7744   YZ=             -1.6165

 Normal termination of Gaussian 09 at Fri Apr 12 15:29:01 2019.
