 Gaussian 09, Revision D.01,
 Gaussian 09:  AS64L-G09RevD.01 24-Apr-2013

 --------------------------------------------------------------------
 #p hf 3-21g scf=tight NoSymmetry guess=read opt=(tight,modredundant)
 --------------------------------------------------------------------

 -----------------------------------
 Geometry optimization at the 2D-PES
 -----------------------------------
 Symbolic Z-matrix:
 Charge =  0 Multiplicity = 1

 SCF Done:  E(RHF) =  -226.396074296     A.U. after   13 cycles
 SCF Done:  E(RHF) =  -226.396078357     A.U. after   11 cycles
 SCF Done:  E(RHF) =  -226.396081485     A.U. after   10 cycles
 SCF Done:  E(RHF) =  -226.396081545     A.U. after    8 cycles
 SCF Done:  E(RHF) =  -226.396081547     A.U. after    7 cycles
 Optimization completed.
    -- Stationary point found.

                          Input orientation:
 ---------------------------------------------------------------------
 Center     Atomic      Atomic             Coordinates (Angstroms)
 Number     Number       Type             X           Y           Z
 ---------------------------------------------------------------------
      1          6           0        0.728077    0.635907    0.052563
      2          6           0        1.368425   -0.504536   -0.004068
      3          1           0        1.186253    1.598817    0.109999
      4          1           0        2.438331   -0.522457   -0.018735
      5          1           0        0.845413   -1.438046   -0.042854
      6          8           0       -0.670255    0.676432   -0.000856
      7          8           0       -1.072090    1.970238    0.558673
      8          1           0       -1.792863    2.195167   -0.052959
 ---------------------------------------------------------------------

 Alpha  occ. eigenvalues --  -20.53622 -20.52788 -11.24237 -11.16378  -1.47806
 Alpha  occ. eigenvalues --   -1.24063  -1.02660  -0.79738  -0.70530  -0.67796
 Alpha  occ. eigenvalues --   -0.64912  -0.57159  -0.55330  -0.51843  -0.48172
 Alpha  occ. eigenvalues --   -0.35840
 Alpha virt. eigenvalues --    0.18713   0.23467   0.27866   0.32126   0.33683
 Alpha virt. eigenvalues --    0.36033   0.49857   0.57734   0.90406   0.97204
 Alpha virt. eigenvalues --    1.00486   1.06626   1.11013   1.12769   1.22351

 Mulliken charges:
               1
     1  C    0.166292
     2  C   -0.506509
     3  H    0.258177
     4  H    0.225836
     5  H    0.239033
     6  O   -0.416986
     7  O   -0.385638
     8  H    0.419795
 Sum of Mulliken charges =   0.00000

 Dipole moment (field-independent basis, Debye):
    X=              0.1951    Y=              0.8860    Z=             -1.1565  Tot=              1.4698
 Quadrupole moment (field-independent basis, Debye-Ang):
   XX=            -18.5869   YY=            -19.5189   ZZ=            -26.3994
   XY=             -2.8057   XZ=              1.5872   YZ=             -2.3822

 Normal termination of Gaussian 09 at Fri Apr 12 15:50:32 2019.
