 Gaussian 09, Revision D.01,
 Gaussian 09:  AS64L-G09RevD.01 24-Apr-2013

 --------------------------------------------------------------------
 #p hf 3-21g scf=tight NoSymmetry guess=read opt=(tight,modredundant)
 --------------------------------------------------------------------

 -----------------------------------
 Geometry optimization at the 2D-PES
 -----------------------------------
 Symbolic Z-matrix:
 Charge =  0 Multiplicity = 1

 SCF Done:  E(RHF) =  -226.386946547     A.U. after   13 cycles
 SCF Done:  E(RHF) =  -226.386990191     A.U. after   13 cycles
 SCF Done:  E(RHF) =  -226.387052096     A.U. after   12 cycles
 SCF Done:  E(RHF) =  -226.387052749     A.U. after   10 cycles
 SCF Done:  E(RHF) =  -226.387052809     A.U. after    9 cycles
 SCF Done:  E(RHF) =  -226.387052818     A.U. after    8 cycles
 Optimization completed.
    -- Stationary point found.

                          Input orientation:
 ---------------------------------------------------------------------
 Center     Atomic      Atomic             Coordinates (Angstroms)
 Number     Number       Type             X           Y           Z
 ---------------------------------------------------------------------
      1          6           0        0.744699    0.558926    0.070346
      2          6           0        1.456538   -0.535625   -0.045906
      3          1           0        1.176889    1.537469    0.093568
      4          1           0        2.523039   -0.464729   -0.088081
      5          1           0        1.045610   -1.523610   -0.047203
      6          8           0       -0.641081    0.699976    0.064678
      7          8           0       -1.350070   -0.536826    0.369978
      8          1           0       -0.946550   -1.190884   -0.228387
 ---------------------------------------------------------------------

 Alpha  occ. eigenvalues --  -20.54762 -20.53499 -11.26052 -11.17975  -1.48833
 Alpha  occ. eigenvalues --   -1.24839  -1.04974  -0.81055  -0.72929  -0.68118
 Alpha  occ. eigenvalues --   -0.65726  -0.57812  -0.54389  -0.53748  -0.49149
 Alpha  occ. eigenvalues --   -0.37410
 Alpha virt. eigenvalues --    0.17743   0.21490   0.27346   0.27921   0.35280
 Alpha virt. eigenvalues --    0.36739   0.49405   0.59258   0.88075   0.95750
 Alpha virt. eigenvalues --    0.99979   1.05688   1.08494   1.11020   1.24850

 Mulliken charges:
               1
     1  C    0.150757
     2  C   -0.527389
     3  H    0.270272
     4  H    0.238277
     5  H    0.210214
     6  O   -0.392320
     7  O   -0.361939
     8  H    0.412128
 Sum of Mulliken charges =   0.00000

 Dipole moment (field-independent basis, Debye):
    X=              2.4194    Y=             -1.2904    Z=             -1.0935  Tot=              2.9520
 Quadrupole moment (field-independent basis, Debye-Ang):
   XX=            -24.9150   YY=            -19.9041   ZZ=            -25.9469
   XY=              2.6445   XZ=              1.5077   YZ=              1.2635

 Normal termination of Gaussian 09 at Fri Apr 12 17:32:50 2019.
