 Gaussian 09, Revision D.01,
 Gaussian 09:  AS64L-G09RevD.01 24-Apr-2013

 --------------------------------------------------------------------
 #p hf 3-21g scf=tight NoSymmetry guess=read opt=(tight,modredundant)
 --------------------------------------------------------------------

 -----------------------------------
 Geometry optimization at the 2D-PES
 -----------------------------------
 Symbolic Z-matrix:
 Charge =  0 Multiplicity = 1

 SCF Done:  E(RHF) =  -226.398320397     A.U. after   13 cycles
 SCF Done:  E(RHF) =  -226.398323046     A.U. after   11 cycles
 SCF Done:  E(RHF) =  -226.398328357     A.U. after   11 cycles
 SCF Done:  E(RHF) =  -226.398328398     A.U. after    8 cycles
 SCF Done:  E(RHF) =  -226.398328402     A.U. after    6 cycles
 Optimization completed.
    -- Stationary point found.

                          Input orientation:
 ---------------------------------------------------------------------
 Center     Atomic      Atomic             Coordinates (Angstroms)
 Number     Number       Type             X           Y           Z
 ---------------------------------------------------------------------
      1          6           0        0.733685    0.570510    0.039777
      2          6           0        1.421919   -0.538385   -0.050834
      3          1           0        1.166283    1.547853    0.100051
      4          1           0        2.491368   -0.498878   -0.058536
      5          1           0        0.946664   -1.493021   -0.097498
      6          8           0       -0.653601    0.709914    0.046904
      7          8           0       -1.274761   -0.606743    0.174705
      8          1           0       -2.016239   -0.495183   -0.443474
 ---------------------------------------------------------------------

 Alpha  occ. eigenvalues --  -20.53948 -20.52861 -11.24254 -11.15781  -1.48019
 Alpha  occ. eigenvalues --   -1.24117  -1.02838  -0.79195  -0.71419  -0.67123
 Alpha  occ. eigenvalues --   -0.64583  -0.59096  -0.53647  -0.51486  -0.48436
 Alpha  occ. eigenvalues --   -0.35649
 Alpha virt. eigenvalues --    0.19881   0.23069   0.28750   0.30300   0.34040
 Alpha virt. eigenvalues --    0.37410   0.49996   0.59064   0.89260   0.97183
 Alpha virt. eigenvalues --    1.01762   1.07521   1.10639   1.13080   1.22287

 Mulliken charges:
               1
     1  C    0.154454
     2  C   -0.507577
     3  H    0.258080
     4  H    0.218929
     5  H    0.251699
     6  O   -0.417585
     7  O   -0.379977
     8  H    0.421977
 Sum of Mulliken charges =   0.00000

 Dipole moment (field-independent basis, Debye):
    X=             -0.0265    Y=              0.0223    Z=             -1.2909  Tot=              1.2914
 Quadrupole moment (field-independent basis, Debye-Ang):
   XX=            -17.7920   YY=            -22.6403   ZZ=            -25.3695
   XY=              2.2383   XZ=              2.7089   YZ=              0.9708

 Normal termination of Gaussian 09 at Fri Apr 12 17:50:39 2019.
