 Gaussian 09, Revision D.01,
 Gaussian 09:  AS64L-G09RevD.01 24-Apr-2013

 --------------------------------------------------------------------
 #p hf 3-21g scf=tight NoSymmetry guess=read opt=(tight,modredundant)
 --------------------------------------------------------------------

 -----------------------------------
 Geometry optimization at the 2D-PES
 -----------------------------------
 Symbolic Z-matrix:
 Charge =  0 Multiplicity = 1

 SCF Done:  E(RHF) =  -226.390812014     A.U. after   13 cycles
 SCF Done:  E(RHF) =  -226.390819585     A.U. after   11 cycles
 SCF Done:  E(RHF) =  -226.390824107     A.U. after   10 cycles
 SCF Done:  E(RHF) =  -226.390824165     A.U. after    9 cycles
 SCF Done:  E(RHF) =  -226.390824170     A.U. after    6 cycles
 SCF Done:  E(RHF) =  -226.390824171     A.U. after    6 cycles
 Optimization completed.
    -- Stationary point found.

                          Input orientation:
 ---------------------------------------------------------------------
 Center     Atomic      Atomic             Coordinates (Angstroms)
 Number     Number       Type             X           Y           Z
 ---------------------------------------------------------------------
      1          6           0        0.730042    0.614793    0.045816
      2          6           0        1.383716   -0.516894   -0.009397
      3          1           0        1.198712    1.573479    0.115438
      4          1           0        2.454356   -0.530603    0.002799
      5          1           0        0.873461   -1.457067   -0.071223
      6          8           0       -0.679074    0.676694   -0.003833
      7          8           0       -1.188492    0.355553    1.341125
      8          1           0       -1.723596   -0.429489    1.134359
 ---------------------------------------------------------------------

 Alpha  occ. eigenvalues --  -20.52411 -20.51827 -11.23961 -11.18055  -1.46341
 Alpha  occ. eigenvalues --   -1.23006  -1.03609  -0.79353  -0.70389  -0.67493
 Alpha  occ. eigenvalues --   -0.64405  -0.58313  -0.55592  -0.49036  -0.45776
 Alpha  occ. eigenvalues --   -0.38503
 Alpha virt. eigenvalues --    0.15140   0.26104   0.29179   0.30671   0.31579
 Alpha virt. eigenvalues --    0.36603   0.49597   0.56485   0.88533   0.97150
 Alpha virt. eigenvalues --    0.98004   1.06557   1.09624   1.12546   1.23839

 Mulliken charges:
               1
     1  C    0.139562
     2  C   -0.457862
     3  H    0.242889
     4  H    0.230817
     5  H    0.231470
     6  O   -0.413666
     7  O   -0.383149
     8  H    0.409940
 Sum of Mulliken charges =   0.00000

 Dipole moment (field-independent basis, Debye):
    X=              0.9212    Y=             -1.8822    Z=             -0.1193  Tot=              2.0989
 Quadrupole moment (field-independent basis, Debye-Ang):
   XX=            -19.4826   YY=            -21.9936   ZZ=            -26.7059
   XY=              3.9266   XZ=             -0.8439   YZ=             -1.6770

 Normal termination of Gaussian 09 at Fri Apr 12 16:43:46 2019.
