 Gaussian 09, Revision D.01,
 Gaussian 09:  AS64L-G09RevD.01 24-Apr-2013

 --------------------------------------------------------------------
 #p hf 3-21g scf=tight NoSymmetry guess=read opt=(tight,modredundant)
 --------------------------------------------------------------------

 -----------------------------------
 Geometry optimization at the 2D-PES
 -----------------------------------
 Symbolic Z-matrix:
 Charge =  0 Multiplicity = 1

 SCF Done:  E(RHF) =  -226.395163656     A.U. after   13 cycles
 SCF Done:  E(RHF) =  -226.395165670     A.U. after   11 cycles
 SCF Done:  E(RHF) =  -226.395166784     A.U. after   10 cycles
 SCF Done:  E(RHF) =  -226.395166826     A.U. after    8 cycles
 SCF Done:  E(RHF) =  -226.395166828     A.U. after    6 cycles
 Optimization completed.
    -- Stationary point found.

                          Input orientation:
 ---------------------------------------------------------------------
 Center     Atomic      Atomic             Coordinates (Angstroms)
 Number     Number       Type             X           Y           Z
 ---------------------------------------------------------------------
      1          6           0        0.732560    0.589887    0.060057
      2          6           0        1.401483   -0.530671   -0.032017
      3          1           0        1.183616    1.559922    0.092040
      4          1           0        2.471763   -0.517452   -0.043495
      5          1           0        0.905717   -1.477673   -0.054450
      6          8           0       -0.661625    0.709508    0.035100
      7          8           0       -1.234098   -0.398352    0.813210
      8          1           0       -2.168775   -0.284190    0.571385
 ---------------------------------------------------------------------

 Alpha  occ. eigenvalues --  -20.53025 -20.52283 -11.23868 -11.16350  -1.46955
 Alpha  occ. eigenvalues --   -1.23552  -1.02801  -0.78856  -0.71102  -0.66168
 Alpha  occ. eigenvalues --   -0.64449  -0.59206  -0.53843  -0.51581  -0.46604
 Alpha  occ. eigenvalues --   -0.36064
 Alpha virt. eigenvalues --    0.17509   0.25336   0.29074   0.30490   0.33290
 Alpha virt. eigenvalues --    0.37342   0.50282   0.58095   0.89225   0.97553
 Alpha virt. eigenvalues --    1.00412   1.07356   1.10643   1.12631   1.23551

 Mulliken charges:
               1
     1  C    0.148279
     2  C   -0.482511
     3  H    0.251426
     4  H    0.221496
     5  H    0.249363
     6  O   -0.423151
     7  O   -0.384752
     8  H    0.419849
 Sum of Mulliken charges =   0.00000

 Dipole moment (field-independent basis, Debye):
    X=             -0.2295    Y=             -0.0643    Z=             -0.2939  Tot=              0.3784
 Quadrupole moment (field-independent basis, Debye-Ang):
   XX=            -15.9106   YY=            -22.5326   ZZ=            -26.4468
   XY=              1.8562   XZ=             -0.5194   YZ=              0.5783

 Normal termination of Gaussian 09 at Fri Apr 12 17:17:26 2019.
