 Gaussian 09, Revision D.01,
 Gaussian 09:  AS64L-G09RevD.01 24-Apr-2013

 --------------------------------------------------------------------
 #p hf 3-21g scf=tight NoSymmetry guess=read opt=(tight,modredundant)
 --------------------------------------------------------------------

 -----------------------------------
 Geometry optimization at the 2D-PES
 -----------------------------------
 Symbolic Z-matrix:
 Charge =  0 Multiplicity = 1

 SCF Done:  E(RHF) =  -226.384705251     A.U. after   11 cycles
 SCF Done:  E(RHF) =  -226.384749681     A.U. after   13 cycles
 SCF Done:  E(RHF) =  -226.384800670     A.U. after   12 cycles
 SCF Done:  E(RHF) =  -226.384801495     A.U. after   11 cycles
 SCF Done:  E(RHF) =  -226.384801543     A.U. after    9 cycles
 SCF Done:  E(RHF) =  -226.384801550     A.U. after    7 cycles
 Optimization completed.
    -- Stationary point found.

                          Input orientation:
 ---------------------------------------------------------------------
 Center     Atomic      Atomic             Coordinates (Angstroms)
 Number     Number       Type             X           Y           Z
 ---------------------------------------------------------------------
      1          6           0        0.747430    0.555688    0.067302
      2          6           0        1.466648   -0.534796   -0.044668
      3          1           0        1.177956    1.534828    0.094917
      4          1           0        2.532745   -0.455262   -0.080806
      5          1           0        1.068858   -1.528527   -0.060334
      6          8           0       -0.637242    0.697620    0.061916
      7          8           0       -1.367408   -0.527591    0.370178
      8          1           0       -0.877110   -1.227223   -0.095085
 ---------------------------------------------------------------------

 Alpha  occ. eigenvalues --  -20.54782 -20.53455 -11.26269 -11.18182  -1.48753
 Alpha  occ. eigenvalues --   -1.24966  -1.05185  -0.81249  -0.73254  -0.68055
 Alpha  occ. eigenvalues --   -0.65411  -0.58156  -0.54529  -0.53784  -0.49171
 Alpha  occ. eigenvalues --   -0.37435
 Alpha virt. eigenvalues --    0.17621   0.21220   0.27016   0.27647   0.35919
 Alpha virt. eigenvalues --    0.36781   0.49413   0.59932   0.88041   0.95487
 Alpha virt. eigenvalues --    1.00435   1.05518   1.08185   1.10897   1.24632

 Mulliken charges:
               1
     1  C    0.150270
     2  C   -0.529764
     3  H    0.271815
     4  H    0.240663
     5  H    0.206662
     6  O   -0.391405
     7  O   -0.362042
     8  H    0.413799
 Sum of Mulliken charges =   0.00000

 Dipole moment (field-independent basis, Debye):
    X=              2.5996    Y=             -1.3633    Z=             -0.8286  Tot=              3.0501
 Quadrupole moment (field-independent basis, Debye-Ang):
   XX=            -25.2236   YY=            -19.6813   ZZ=            -26.0745
   XY=              2.5444   XZ=              1.2331   YZ=              0.9274

 Normal termination of Gaussian 09 at Fri Apr 12 17:32:17 2019.
