 Gaussian 09, Revision D.01,
 Gaussian 09:  AS64L-G09RevD.01 24-Apr-2013

 --------------------------------------------------------------------
 #p hf 3-21g scf=tight NoSymmetry guess=read opt=(tight,modredundant)
 --------------------------------------------------------------------

 -----------------------------------
 Geometry optimization at the 2D-PES
 -----------------------------------
 Symbolic Z-matrix:
 Charge =  0 Multiplicity = 1

 SCF Done:  E(RHF) =  -226.392587371     A.U. after   13 cycles
 SCF Done:  E(RHF) =  -226.392596373     A.U. after   11 cycles
 SCF Done:  E(RHF) =  -226.392605274     A.U. after   10 cycles
 SCF Done:  E(RHF) =  -226.392605312     A.U. after    8 cycles
 SCF Done:  E(RHF) =  -226.392605314     A.U. after    7 cycles
 Optimization completed.
    -- Stationary point found.

                          Input orientation:
 ---------------------------------------------------------------------
 Center     Atomic      Atomic             Coordinates (Angstroms)
 Number     Number       Type             X           Y           Z
 ---------------------------------------------------------------------
      1          6           0        0.737557    0.636424    0.034681
      2          6           0        1.372605   -0.507022   -0.012338
      3          1           0        1.203485    1.595106    0.108183
      4          1           0        2.442470   -0.530402    0.000588
      5          1           0        0.846234   -1.438308   -0.061044
      6          8           0       -0.667069    0.680772    0.028890
      7          8           0       -1.078142    2.079896    0.088442
      8          1           0       -1.128283    2.310570   -0.856662
 ---------------------------------------------------------------------

 Alpha  occ. eigenvalues --  -20.54014 -20.53343 -11.24696 -11.16786  -1.48417
 Alpha  occ. eigenvalues --   -1.24181  -1.03202  -0.80295  -0.72006  -0.66793
 Alpha  occ. eigenvalues --   -0.65356  -0.57360  -0.54792  -0.52643  -0.48723
 Alpha  occ. eigenvalues --   -0.36373
 Alpha virt. eigenvalues --    0.18836   0.22056   0.27009   0.31757   0.33700
 Alpha virt. eigenvalues --    0.35618   0.49509   0.57326   0.89806   0.96665
 Alpha virt. eigenvalues --    0.99664   1.06049   1.10432   1.11380   1.24274

 Mulliken charges:
               1
     1  C    0.141621
     2  C   -0.505746
     3  H    0.255923
     4  H    0.227902
     5  H    0.242095
     6  O   -0.398665
     7  O   -0.372640
     8  H    0.409510
 Sum of Mulliken charges =   0.00000

 Dipole moment (field-independent basis, Debye):
    X=              1.6178    Y=              0.8588    Z=             -1.9419  Tot=              2.6694
 Quadrupole moment (field-independent basis, Debye-Ang):
   XX=            -22.9828   YY=            -19.4293   ZZ=            -24.0396
   XY=              0.4116   XZ=              2.4952   YZ=             -4.5094

 Normal termination of Gaussian 09 at Fri Apr 12 15:40:10 2019.
