 Gaussian 09, Revision D.01,
 Gaussian 09:  AS64L-G09RevD.01 24-Apr-2013

 --------------------------------------------------------------------
 #p hf 3-21g scf=tight NoSymmetry guess=read opt=(tight,modredundant)
 --------------------------------------------------------------------

 -----------------------------------
 Geometry optimization at the 2D-PES
 -----------------------------------
 Symbolic Z-matrix:
 Charge =  0 Multiplicity = 1

 SCF Done:  E(RHF) =  -226.391153934     A.U. after   13 cycles
 SCF Done:  E(RHF) =  -226.391160364     A.U. after   11 cycles
 SCF Done:  E(RHF) =  -226.391163776     A.U. after   10 cycles
 SCF Done:  E(RHF) =  -226.391163836     A.U. after    9 cycles
 SCF Done:  E(RHF) =  -226.391163842     A.U. after    7 cycles
 SCF Done:  E(RHF) =  -226.391163843     A.U. after    6 cycles
 Optimization completed.
    -- Stationary point found.

                          Input orientation:
 ---------------------------------------------------------------------
 Center     Atomic      Atomic             Coordinates (Angstroms)
 Number     Number       Type             X           Y           Z
 ---------------------------------------------------------------------
      1          6           0        0.728857    0.619962    0.040393
      2          6           0        1.377475   -0.515534   -0.003288
      3          1           0        1.197630    1.577309    0.121982
      4          1           0        2.447956   -0.535598    0.015332
      5          1           0        0.861196   -1.451707   -0.077957
      6          8           0       -0.681235    0.670604   -0.016316
      7          8           0       -1.171304    0.597937    1.371253
      8          1           0       -1.567271   -0.290470    1.368526
 ---------------------------------------------------------------------

 Alpha  occ. eigenvalues --  -20.52554 -20.51874 -11.24113 -11.18257  -1.46505
 Alpha  occ. eigenvalues --   -1.23041  -1.03757  -0.79564  -0.71050  -0.66618
 Alpha  occ. eigenvalues --   -0.64327  -0.59095  -0.55860  -0.48216  -0.46151
 Alpha  occ. eigenvalues --   -0.38952
 Alpha virt. eigenvalues --    0.15165   0.25880   0.28862   0.31020   0.31427
 Alpha virt. eigenvalues --    0.36281   0.49330   0.56320   0.88462   0.96908
 Alpha virt. eigenvalues --    0.97764   1.06561   1.09508   1.12294   1.24131

 Mulliken charges:
               1
     1  C    0.137301
     2  C   -0.461702
     3  H    0.243399
     4  H    0.231715
     5  H    0.232827
     6  O   -0.408223
     7  O   -0.383414
     8  H    0.408097
 Sum of Mulliken charges =   0.00000

 Dipole moment (field-independent basis, Debye):
    X=              1.2216    Y=             -2.0302    Z=              0.2936  Tot=              2.3875
 Quadrupole moment (field-independent basis, Debye-Ang):
   XX=            -20.5722   YY=            -22.6022   ZZ=            -25.6374
   XY=              3.8486   XZ=             -1.2576   YZ=             -2.2286

 Normal termination of Gaussian 09 at Fri Apr 12 16:42:13 2019.
