 Gaussian 09, Revision D.01,
 Gaussian 09:  AS64L-G09RevD.01 24-Apr-2013

 --------------------------------------------------------------------
 #p hf 3-21g scf=tight NoSymmetry guess=read opt=(tight,modredundant)
 --------------------------------------------------------------------

 -----------------------------------
 Geometry optimization at the 2D-PES
 -----------------------------------
 Symbolic Z-matrix:
 Charge =  0 Multiplicity = 1

 SCF Done:  E(RHF) =  -226.393851353     A.U. after   13 cycles
 SCF Done:  E(RHF) =  -226.393852304     A.U. after   11 cycles
 SCF Done:  E(RHF) =  -226.393852422     A.U. after    9 cycles
 SCF Done:  E(RHF) =  -226.393852441     A.U. after    8 cycles
 Optimization completed.
    -- Stationary point found.

                          Input orientation:
 ---------------------------------------------------------------------
 Center     Atomic      Atomic             Coordinates (Angstroms)
 Number     Number       Type             X           Y           Z
 ---------------------------------------------------------------------
      1          6           0        0.732144    0.598058    0.057641
      2          6           0        1.393601   -0.527412   -0.025309
      3          1           0        1.190872    1.564161    0.094753
      4          1           0        2.464134   -0.525803   -0.029160
      5          1           0        0.888948   -1.470412   -0.049931
      6          8           0       -0.666151    0.704357    0.021525
      7          8           0       -1.219550   -0.254717    0.992555
      8          1           0       -2.157826   -0.193942    0.744456
 ---------------------------------------------------------------------

 Alpha  occ. eigenvalues --  -20.52659 -20.52047 -11.23735 -11.16726  -1.46548
 Alpha  occ. eigenvalues --   -1.23298  -1.02883  -0.78821  -0.70678  -0.66590
 Alpha  occ. eigenvalues --   -0.64311  -0.58637  -0.54101  -0.51552  -0.45851
 Alpha  occ. eigenvalues --   -0.36508
 Alpha virt. eigenvalues --    0.16697   0.26081   0.29260   0.30436   0.32820
 Alpha virt. eigenvalues --    0.37262   0.50241   0.57628   0.89121   0.97554
 Alpha virt. eigenvalues --    1.00100   1.07205   1.10554   1.12545   1.23442

 Mulliken charges:
               1
     1  C    0.143925
     2  C   -0.470653
     3  H    0.247842
     4  H    0.223213
     5  H    0.247280
     6  O   -0.423511
     7  O   -0.385828
     8  H    0.417732
 Sum of Mulliken charges =   0.00000

 Dipole moment (field-independent basis, Debye):
    X=             -0.1321    Y=             -0.2071    Z=             -0.2573  Tot=              0.3558
 Quadrupole moment (field-independent basis, Debye-Ang):
   XX=            -15.8867   YY=            -22.4181   ZZ=            -26.6041
   XY=              1.7286   XZ=             -0.8904   YZ=              0.4920

 Normal termination of Gaussian 09 at Fri Apr 12 17:10:29 2019.
