 Gaussian 09, Revision D.01,
 Gaussian 09:  AS64L-G09RevD.01 24-Apr-2013

 --------------------------------------------------------------------
 #p hf 3-21g scf=tight NoSymmetry guess=read opt=(tight,modredundant)
 --------------------------------------------------------------------

 -----------------------------------
 Geometry optimization at the 2D-PES
 -----------------------------------
 Symbolic Z-matrix:
 Charge =  0 Multiplicity = 1

 SCF Done:  E(RHF) =  -226.398013577     A.U. after   13 cycles
 SCF Done:  E(RHF) =  -226.398015029     A.U. after   11 cycles
 SCF Done:  E(RHF) =  -226.398017775     A.U. after   10 cycles
 SCF Done:  E(RHF) =  -226.398017800     A.U. after    8 cycles
 SCF Done:  E(RHF) =  -226.398017804     A.U. after    7 cycles
 Optimization completed.
    -- Stationary point found.

                          Input orientation:
 ---------------------------------------------------------------------
 Center     Atomic      Atomic             Coordinates (Angstroms)
 Number     Number       Type             X           Y           Z
 ---------------------------------------------------------------------
      1          6           0        0.731837    0.571385    0.044747
      2          6           0        1.418339   -0.538401   -0.047973
      3          1           0        1.166046    1.548781    0.093780
      4          1           0        2.487882   -0.499713   -0.059122
      5          1           0        0.942613   -1.492806   -0.100433
      6          8           0       -0.653681    0.711241    0.050595
      7          8           0       -1.269286   -0.610440    0.174645
      8          1           0       -2.146509   -0.339059    0.491827
 ---------------------------------------------------------------------

 Alpha  occ. eigenvalues --  -20.53830 -20.52665 -11.24152 -11.15633  -1.47828
 Alpha  occ. eigenvalues --   -1.24065  -1.02664  -0.79090  -0.71863  -0.65208
 Alpha  occ. eigenvalues --   -0.63798  -0.61749  -0.53661  -0.50543  -0.48323
 Alpha  occ. eigenvalues --   -0.35457
 Alpha virt. eigenvalues --    0.20144   0.23025   0.28612   0.30560   0.34313
 Alpha virt. eigenvalues --    0.37434   0.50221   0.59232   0.89407   0.97502
 Alpha virt. eigenvalues --    1.00936   1.07673   1.10795   1.12868   1.23837

 Mulliken charges:
               1
     1  C    0.157527
     2  C   -0.506723
     3  H    0.256945
     4  H    0.218049
     5  H    0.255515
     6  O   -0.421995
     7  O   -0.383958
     8  H    0.424640
 Sum of Mulliken charges =   0.00000

 Dipole moment (field-independent basis, Debye):
    X=             -0.3169    Y=              0.3497    Z=              0.7364  Tot=              0.8747
 Quadrupole moment (field-independent basis, Debye-Ang):
   XX=            -16.4717   YY=            -22.9201   ZZ=            -25.3255
   XY=              1.5905   XZ=             -1.9103   YZ=              0.0894

 Normal termination of Gaussian 09 at Fri Apr 12 17:48:56 2019.
