 Gaussian 09, Revision D.01,
 Gaussian 09:  AS64L-G09RevD.01 24-Apr-2013

 --------------------------------------------------------------------
 #p hf 3-21g scf=tight NoSymmetry guess=read opt=(tight,modredundant)
 --------------------------------------------------------------------

 -----------------------------------
 Geometry optimization at the 2D-PES
 -----------------------------------
 Symbolic Z-matrix:
 Charge =  0 Multiplicity = 1

 SCF Done:  E(RHF) =  -226.386313707     A.U. after   13 cycles
 SCF Done:  E(RHF) =  -226.386338967     A.U. after   12 cycles
 SCF Done:  E(RHF) =  -226.386353407     A.U. after   10 cycles
 SCF Done:  E(RHF) =  -226.386353683     A.U. after   10 cycles
 SCF Done:  E(RHF) =  -226.386353744     A.U. after    9 cycles
 SCF Done:  E(RHF) =  -226.386353747     A.U. after    8 cycles
 Optimization completed.
    -- Stationary point found.

                          Input orientation:
 ---------------------------------------------------------------------
 Center     Atomic      Atomic             Coordinates (Angstroms)
 Number     Number       Type             X           Y           Z
 ---------------------------------------------------------------------
      1          6           0        0.743118    0.637579    0.023118
      2          6           0        1.380786   -0.505160   -0.015538
      3          1           0        1.211503    1.598067    0.089210
      4          1           0        2.449765   -0.536899    0.036055
      5          1           0        0.846987   -1.431893   -0.074005
      6          8           0       -0.662861    0.667065    0.046209
      7          8           0       -1.126919    1.600960   -0.993654
      8          1           0       -0.526756    1.428076   -1.743317
 ---------------------------------------------------------------------

 Alpha  occ. eigenvalues --  -20.53520 -20.52418 -11.25039 -11.18849  -1.47319
 Alpha  occ. eigenvalues --   -1.23800  -1.04425  -0.81143  -0.72381  -0.66465
 Alpha  occ. eigenvalues --   -0.62951  -0.59484  -0.55654  -0.52209  -0.46237
 Alpha  occ. eigenvalues --   -0.38623
 Alpha virt. eigenvalues --    0.14914   0.25353   0.27408   0.30413   0.31636
 Alpha virt. eigenvalues --    0.35463   0.48727   0.56046   0.88205   0.96519
 Alpha virt. eigenvalues --    0.98122   1.06066   1.09251   1.10584   1.24557

 Mulliken charges:
               1
     1  C    0.086275
     2  C   -0.467861
     3  H    0.249045
     4  H    0.233548
     5  H    0.252786
     6  O   -0.377868
     7  O   -0.375679
     8  H    0.399755
 Sum of Mulliken charges =   0.00000

 Dipole moment (field-independent basis, Debye):
    X=              3.1962    Y=             -0.4785    Z=             -1.5927  Tot=              3.6030
 Quadrupole moment (field-independent basis, Debye-Ang):
   XX=            -24.9508   YY=            -23.1073   ZZ=            -21.2623
   XY=              3.2071   XZ=             -0.1105   YZ=             -1.7506

 Normal termination of Gaussian 09 at Fri Apr 12 15:19:18 2019.
