 Gaussian 09, Revision D.01,
 Gaussian 09:  AS64L-G09RevD.01 24-Apr-2013

 --------------------------------------------------------------------
 #p hf 3-21g scf=tight NoSymmetry guess=read opt=(tight,modredundant)
 --------------------------------------------------------------------

 -----------------------------------
 Geometry optimization at the 2D-PES
 -----------------------------------
 Symbolic Z-matrix:
 Charge =  0 Multiplicity = 1

 SCF Done:  E(RHF) =  -226.389384887     A.U. after   12 cycles
 SCF Done:  E(RHF) =  -226.389404351     A.U. after   13 cycles
 SCF Done:  E(RHF) =  -226.389419527     A.U. after   12 cycles
 SCF Done:  E(RHF) =  -226.389419686     A.U. after   10 cycles
 SCF Done:  E(RHF) =  -226.389419725     A.U. after    9 cycles
 SCF Done:  E(RHF) =  -226.389419727     A.U. after    7 cycles
 Optimization completed.
    -- Stationary point found.

                          Input orientation:
 ---------------------------------------------------------------------
 Center     Atomic      Atomic             Coordinates (Angstroms)
 Number     Number       Type             X           Y           Z
 ---------------------------------------------------------------------
      1          6           0        0.741370    0.638155    0.018677
      2          6           0        1.376545   -0.505724   -0.016792
      3          1           0        1.207589    1.597862    0.096708
      4          1           0        2.445355   -0.535415    0.034151
      5          1           0        0.845681   -1.433771   -0.079421
      6          8           0       -0.663534    0.675002    0.046781
      7          8           0       -1.102755    1.905566   -0.615898
      8          1           0       -0.740388    1.811565   -1.516678
 ---------------------------------------------------------------------

 Alpha  occ. eigenvalues --  -20.53900 -20.52950 -11.24929 -11.17929  -1.48013
 Alpha  occ. eigenvalues --   -1.24039  -1.03903  -0.80827  -0.72521  -0.65870
 Alpha  occ. eigenvalues --   -0.64577  -0.59135  -0.55243  -0.51877  -0.47776
 Alpha  occ. eigenvalues --   -0.37568
 Alpha virt. eigenvalues --    0.16290   0.24071   0.27186   0.31045   0.32643
 Alpha virt. eigenvalues --    0.35468   0.49057   0.56603   0.88942   0.96497
 Alpha virt. eigenvalues --    0.98826   1.06192   1.09698   1.10424   1.25010

 Mulliken charges:
               1
     1  C    0.109810
     2  C   -0.487713
     3  H    0.253815
     4  H    0.231415
     5  H    0.247499
     6  O   -0.384125
     7  O   -0.373102
     8  H    0.402402
 Sum of Mulliken charges =   0.00000

 Dipole moment (field-independent basis, Debye):
    X=              2.5881    Y=             -0.0942    Z=             -1.9159  Tot=              3.2215
 Quadrupole moment (field-independent basis, Debye-Ang):
   XX=            -24.4527   YY=            -22.6197   ZZ=            -21.4861
   XY=              2.7140   XZ=              1.2811   YZ=             -3.2069

 Normal termination of Gaussian 09 at Fri Apr 12 15:27:26 2019.
