 Gaussian 09, Revision D.01,
 Gaussian 09:  AS64L-G09RevD.01 24-Apr-2013

 --------------------------------------------------------------------
 #p hf 3-21g scf=tight NoSymmetry guess=read opt=(tight,modredundant)
 --------------------------------------------------------------------

 -----------------------------------
 Geometry optimization at the 2D-PES
 -----------------------------------
 Symbolic Z-matrix:
 Charge =  0 Multiplicity = 1

 SCF Done:  E(RHF) =  -226.392329887     A.U. after   13 cycles
 SCF Done:  E(RHF) =  -226.392331531     A.U. after   11 cycles
 SCF Done:  E(RHF) =  -226.392331987     A.U. after   10 cycles
 SCF Done:  E(RHF) =  -226.392332021     A.U. after    7 cycles
 SCF Done:  E(RHF) =  -226.392332023     A.U. after    6 cycles
 Optimization completed.
    -- Stationary point found.

                          Input orientation:
 ---------------------------------------------------------------------
 Center     Atomic      Atomic             Coordinates (Angstroms)
 Number     Number       Type             X           Y           Z
 ---------------------------------------------------------------------
      1          6           0        0.726430    0.622298    0.042632
      2          6           0        1.372203   -0.514028   -0.002853
      3          1           0        1.196375    1.579680    0.122372
      4          1           0        2.442789   -0.536732    0.011820
      5          1           0        0.848252   -1.446260   -0.061690
      6          8           0       -0.679746    0.672527   -0.020005
      7          8           0       -1.161183    0.592997    1.376227
      8          1           0       -2.073663    0.305032    1.202696
 ---------------------------------------------------------------------

 Alpha  occ. eigenvalues --  -20.52101 -20.51412 -11.23579 -11.17738  -1.45826
 Alpha  occ. eigenvalues --   -1.22865  -1.03130  -0.79062  -0.68916  -0.68439
 Alpha  occ. eigenvalues --   -0.63790  -0.57796  -0.55436  -0.50624  -0.43723
 Alpha  occ. eigenvalues --   -0.38446
 Alpha virt. eigenvalues --    0.15378   0.27748   0.29249   0.30642   0.31792
 Alpha virt. eigenvalues --    0.36626   0.49572   0.56820   0.88968   0.97534
 Alpha virt. eigenvalues --    0.99027   1.06947   1.10186   1.12482   1.23679

 Mulliken charges:
               1
     1  C    0.141693
     2  C   -0.450143
     3  H    0.238048
     4  H    0.227770
     5  H    0.241857
     6  O   -0.421444
     7  O   -0.391938
     8  H    0.414158
 Sum of Mulliken charges =   0.00000

 Dipole moment (field-independent basis, Debye):
    X=              0.1468    Y=             -0.8843    Z=             -0.0502  Tot=              0.8978
 Quadrupole moment (field-independent basis, Debye-Ang):
   XX=            -16.3163   YY=            -22.7717   ZZ=            -26.5758
   XY=              1.3842   XZ=             -2.0222   YZ=             -0.5747

 Normal termination of Gaussian 09 at Fri Apr 12 16:40:36 2019.
