 Gaussian 09, Revision D.01,
 Gaussian 09:  AS64L-G09RevD.01 24-Apr-2013

 --------------------------------------------------------------------
 #p hf 3-21g scf=tight NoSymmetry guess=read opt=(tight,modredundant)
 --------------------------------------------------------------------

 -----------------------------------
 Geometry optimization at the 2D-PES
 -----------------------------------
 Symbolic Z-matrix:
 Charge =  0 Multiplicity = 1

 SCF Done:  E(RHF) =  -226.384333169     A.U. after   12 cycles
 SCF Done:  E(RHF) =  -226.384371776     A.U. after   13 cycles
 SCF Done:  E(RHF) =  -226.384445749     A.U. after   12 cycles
 SCF Done:  E(RHF) =  -226.384446917     A.U. after   11 cycles
 SCF Done:  E(RHF) =  -226.384447054     A.U. after    9 cycles
 SCF Done:  E(RHF) =  -226.384447063     A.U. after    7 cycles
 Optimization completed.
    -- Stationary point found.

                          Input orientation:
 ---------------------------------------------------------------------
 Center     Atomic      Atomic             Coordinates (Angstroms)
 Number     Number       Type             X           Y           Z
 ---------------------------------------------------------------------
      1          6           0        0.747600    0.561052    0.015736
      2          6           0        1.464349   -0.536030   -0.051762
      3          1           0        1.176039    1.539168    0.080941
      4          1           0        2.531452   -0.466627   -0.035579
      5          1           0        1.053002   -1.516823   -0.176030
      6          8           0       -0.634352    0.693991    0.045763
      7          8           0       -1.359191   -0.561770    0.225835
      8          1           0       -0.702495   -1.173408    0.604498
 ---------------------------------------------------------------------

 Alpha  occ. eigenvalues --  -20.54915 -20.53415 -11.26607 -11.18264  -1.48833
 Alpha  occ. eigenvalues --   -1.25093  -1.05401  -0.81519  -0.73397  -0.68352
 Alpha  occ. eigenvalues --   -0.64604  -0.58344  -0.55083  -0.54184  -0.49055
 Alpha  occ. eigenvalues --   -0.37415
 Alpha virt. eigenvalues --    0.17748   0.21398   0.27098   0.27850   0.34580
 Alpha virt. eigenvalues --    0.36703   0.49258   0.59349   0.87841   0.95437
 Alpha virt. eigenvalues --    1.01240   1.05387   1.07843   1.10931   1.23480

 Mulliken charges:
               1
     1  C    0.149777
     2  C   -0.545579
     3  H    0.274230
     4  H    0.240815
     5  H    0.217802
     6  O   -0.389085
     7  O   -0.362670
     8  H    0.414710
 Sum of Mulliken charges =   0.00000

 Dipole moment (field-independent basis, Debye):
    X=              2.9235    Y=             -1.1432    Z=              0.7498  Tot=              3.2274
 Quadrupole moment (field-independent basis, Debye-Ang):
   XX=            -25.7880   YY=            -19.9977   ZZ=            -25.1497
   XY=              1.9325   XZ=             -0.2112   YZ=             -1.0002

 Normal termination of Gaussian 09 at Fri Apr 12 17:44:25 2019.
