 Gaussian 09, Revision D.01,
 Gaussian 09:  AS64L-G09RevD.01 24-Apr-2013

 --------------------------------------------------------------------
 #p hf 3-21g scf=tight NoSymmetry guess=read opt=(tight,modredundant)
 --------------------------------------------------------------------

 -----------------------------------
 Geometry optimization at the 2D-PES
 -----------------------------------
 Symbolic Z-matrix:
 Charge =  0 Multiplicity = 1

 SCF Done:  E(RHF) =  -226.393398913     A.U. after   13 cycles
 SCF Done:  E(RHF) =  -226.393403601     A.U. after   11 cycles
 SCF Done:  E(RHF) =  -226.393405541     A.U. after   10 cycles
 SCF Done:  E(RHF) =  -226.393405602     A.U. after    8 cycles
 SCF Done:  E(RHF) =  -226.393405608     A.U. after    7 cycles
 SCF Done:  E(RHF) =  -226.393405609     A.U. after    6 cycles
 Optimization completed.
    -- Stationary point found.

                          Input orientation:
 ---------------------------------------------------------------------
 Center     Atomic      Atomic             Coordinates (Angstroms)
 Number     Number       Type             X           Y           Z
 ---------------------------------------------------------------------
      1          6           0        0.726895    0.627818    0.044539
      2          6           0        1.370970   -0.510481    0.004007
      3          1           0        1.191067    1.586731    0.128577
      4          1           0        2.441476   -0.534374    0.010701
      5          1           0        0.846397   -1.442107   -0.063318
      6          8           0       -0.679723    0.665944   -0.024921
      7          8           0       -1.140008    1.074858    1.314484
      8          1           0       -1.679941    0.300793    1.549366
 ---------------------------------------------------------------------

 Alpha  occ. eigenvalues --  -20.52728 -20.51866 -11.24062 -11.17909  -1.46638
 Alpha  occ. eigenvalues --   -1.23202  -1.03447  -0.79557  -0.71015  -0.66594
 Alpha  occ. eigenvalues --   -0.63313  -0.60158  -0.55872  -0.48611  -0.45835
 Alpha  occ. eigenvalues --   -0.38630
 Alpha virt. eigenvalues --    0.15894   0.26356   0.28505   0.31058   0.31961
 Alpha virt. eigenvalues --    0.36011   0.49188   0.56599   0.88946   0.96952
 Alpha virt. eigenvalues --    0.98469   1.06936   1.09965   1.12672   1.22897

 Mulliken charges:
               1
     1  C    0.143968
     2  C   -0.469394
     3  H    0.245145
     4  H    0.229668
     5  H    0.237503
     6  O   -0.409589
     7  O   -0.389315
     8  H    0.412015
 Sum of Mulliken charges =   0.00000

 Dipole moment (field-independent basis, Debye):
    X=              0.8661    Y=             -1.7060    Z=              0.7794  Tot=              2.0659
 Quadrupole moment (field-independent basis, Debye-Ang):
   XX=            -19.6571   YY=            -24.2681   ZZ=            -24.1638
   XY=              2.9186   XZ=             -2.5797   YZ=             -1.7016

 Normal termination of Gaussian 09 at Fri Apr 12 16:26:49 2019.
