 Gaussian 09, Revision D.01,
 Gaussian 09:  AS64L-G09RevD.01 24-Apr-2013

 --------------------------------------------------------------------
 #p hf 3-21g scf=tight NoSymmetry guess=read opt=(tight,modredundant)
 --------------------------------------------------------------------

 -----------------------------------
 Geometry optimization at the 2D-PES
 -----------------------------------
 Symbolic Z-matrix:
 Charge =  0 Multiplicity = 1

 SCF Done:  E(RHF) =  -226.390597558     A.U. after   13 cycles
 SCF Done:  E(RHF) =  -226.390608108     A.U. after   12 cycles
 SCF Done:  E(RHF) =  -226.390618730     A.U. after   11 cycles
 SCF Done:  E(RHF) =  -226.390618782     A.U. after    9 cycles
 SCF Done:  E(RHF) =  -226.390618789     A.U. after    8 cycles
 SCF Done:  E(RHF) =  -226.390618789     A.U. after    6 cycles
 Optimization completed.
    -- Stationary point found.

                          Input orientation:
 ---------------------------------------------------------------------
 Center     Atomic      Atomic             Coordinates (Angstroms)
 Number     Number       Type             X           Y           Z
 ---------------------------------------------------------------------
      1          6           0        0.740099    0.637607    0.020054
      2          6           0        1.374530   -0.506568   -0.017003
      3          1           0        1.206364    1.596659    0.098960
      4          1           0        2.443719   -0.534258    0.023930
      5          1           0        0.845360   -1.435791   -0.075850
      6          8           0       -0.664781    0.678436    0.046462
      7          8           0       -1.092084    2.006343   -0.391278
      8          1           0       -0.867548    2.000588   -1.340216
 ---------------------------------------------------------------------

 Alpha  occ. eigenvalues --  -20.54002 -20.53168 -11.24861 -11.17470  -1.48255
 Alpha  occ. eigenvalues --   -1.24120  -1.03641  -0.80646  -0.72472  -0.65644
 Alpha  occ. eigenvalues --   -0.65350  -0.58688  -0.55058  -0.51985  -0.48302
 Alpha  occ. eigenvalues --   -0.37084
 Alpha virt. eigenvalues --    0.17138   0.23323   0.27066   0.31327   0.33123
 Alpha virt. eigenvalues --    0.35514   0.49249   0.56875   0.89288   0.96523
 Alpha virt. eigenvalues --    0.99133   1.06056   1.09915   1.10688   1.25023

 Mulliken charges:
               1
     1  C    0.121195
     2  C   -0.496009
     3  H    0.255572
     4  H    0.230199
     5  H    0.245125
     6  O   -0.388554
     7  O   -0.372045
     8  H    0.404517
 Sum of Mulliken charges =   0.00000

 Dipole moment (field-independent basis, Debye):
    X=              2.2515    Y=              0.2036    Z=             -2.0136  Tot=              3.0274
 Quadrupole moment (field-independent basis, Debye-Ang):
   XX=            -24.0541   YY=            -21.8333   ZZ=            -22.0624
   XY=              2.1212   XZ=              1.8896   YZ=             -3.9233

 Normal termination of Gaussian 09 at Fri Apr 12 15:31:44 2019.
