 Gaussian 09, Revision D.01,
 Gaussian 09:  AS64L-G09RevD.01 24-Apr-2013

 --------------------------------------------------------------------
 #p hf 3-21g scf=tight NoSymmetry guess=read opt=(tight,modredundant)
 --------------------------------------------------------------------

 -----------------------------------
 Geometry optimization at the 2D-PES
 -----------------------------------
 Symbolic Z-matrix:
 Charge =  0 Multiplicity = 1

 SCF Done:  E(RHF) =  -226.384743648     A.U. after   13 cycles
 SCF Done:  E(RHF) =  -226.384766472     A.U. after   12 cycles
 SCF Done:  E(RHF) =  -226.384795601     A.U. after   12 cycles
 SCF Done:  E(RHF) =  -226.384795826     A.U. after    9 cycles
 SCF Done:  E(RHF) =  -226.384795875     A.U. after    9 cycles
 SCF Done:  E(RHF) =  -226.384795877     A.U. after    6 cycles
 Optimization completed.
    -- Stationary point found.

                          Input orientation:
 ---------------------------------------------------------------------
 Center     Atomic      Atomic             Coordinates (Angstroms)
 Number     Number       Type             X           Y           Z
 ---------------------------------------------------------------------
      1          6           0        0.751981    0.633541    0.032974
      2          6           0        1.378902   -0.514286   -0.009128
      3          1           0        1.242806    1.581564    0.114855
      4          1           0        2.448437   -0.547334    0.005069
      5          1           0        0.842759   -1.439821   -0.057899
      6          8           0       -0.651101    0.688623    0.025576
      7          8           0       -1.106046    2.077394    0.078597
      8          1           0       -0.594357    2.515562   -0.626479
 ---------------------------------------------------------------------

 Alpha  occ. eigenvalues --  -20.54172 -20.53428 -11.25448 -11.17411  -1.48349
 Alpha  occ. eigenvalues --   -1.24446  -1.03864  -0.81442  -0.72046  -0.66711
 Alpha  occ. eigenvalues --   -0.65191  -0.57815  -0.54799  -0.53408  -0.48868
 Alpha  occ. eigenvalues --   -0.36641
 Alpha virt. eigenvalues --    0.17783   0.21990   0.25323   0.31292   0.33704
 Alpha virt. eigenvalues --    0.35470   0.50177   0.56640   0.89005   0.96321
 Alpha virt. eigenvalues --    0.99113   1.06102   1.10024   1.10858   1.24233

 Mulliken charges:
               1
     1  C    0.127393
     2  C   -0.497287
     3  H    0.240297
     4  H    0.230050
     5  H    0.247837
     6  O   -0.385890
     7  O   -0.363277
     8  H    0.400878
 Sum of Mulliken charges =   0.00000

 Dipole moment (field-independent basis, Debye):
    X=              2.7990    Y=              1.1000    Z=             -1.3932  Tot=              3.3144
 Quadrupole moment (field-independent basis, Debye-Ang):
   XX=            -24.8550   YY=            -17.5010   ZZ=            -24.8974
   XY=              2.8068   XZ=              1.0794   YZ=             -3.5215

 Normal termination of Gaussian 09 at Fri Apr 12 15:41:35 2019.
