 Gaussian 09, Revision D.01,
 Gaussian 09:  AS64L-G09RevD.01 24-Apr-2013

 --------------------------------------------------------------------
 #p hf 3-21g scf=tight NoSymmetry guess=read opt=(tight,modredundant)
 --------------------------------------------------------------------

 -----------------------------------
 Geometry optimization at the 2D-PES
 -----------------------------------
 Symbolic Z-matrix:
 Charge =  0 Multiplicity = 1

 SCF Done:  E(RHF) =  -226.391427993     A.U. after   13 cycles
 SCF Done:  E(RHF) =  -226.391435506     A.U. after   11 cycles
 SCF Done:  E(RHF) =  -226.391439602     A.U. after   10 cycles
 SCF Done:  E(RHF) =  -226.391439653     A.U. after    8 cycles
 SCF Done:  E(RHF) =  -226.391439656     A.U. after    7 cycles
 Optimization completed.
    -- Stationary point found.

                          Input orientation:
 ---------------------------------------------------------------------
 Center     Atomic      Atomic             Coordinates (Angstroms)
 Number     Number       Type             X           Y           Z
 ---------------------------------------------------------------------
      1          6           0        0.737275    0.604848    0.054589
      2          6           0        1.394284   -0.522985   -0.020340
      3          1           0        1.201988    1.568760    0.094636
      4          1           0        2.465123   -0.529040   -0.020737
      5          1           0        0.882422   -1.462563   -0.056779
      6          8           0       -0.669097    0.693011    0.016552
      7          8           0       -1.217542   -0.073271    1.145562
      8          1           0       -1.695598    0.632072    1.614956
 ---------------------------------------------------------------------

 Alpha  occ. eigenvalues --  -20.52504 -20.51900 -11.23699 -11.17246  -1.46459
 Alpha  occ. eigenvalues --   -1.22996  -1.03130  -0.79337  -0.70458  -0.66212
 Alpha  occ. eigenvalues --   -0.63168  -0.60457  -0.55193  -0.48690  -0.45968
 Alpha  occ. eigenvalues --   -0.37617
 Alpha virt. eigenvalues --    0.16004   0.25961   0.29324   0.30496   0.32460
 Alpha virt. eigenvalues --    0.36985   0.49967   0.57104   0.88638   0.97263
 Alpha virt. eigenvalues --    0.99276   1.06751   1.10335   1.12806   1.23287

 Mulliken charges:
               1
     1  C    0.125664
     2  C   -0.457744
     3  H    0.239221
     4  H    0.224373
     5  H    0.253585
     6  O   -0.412939
     7  O   -0.384325
     8  H    0.412166
 Sum of Mulliken charges =   0.00000

 Dipole moment (field-independent basis, Debye):
    X=              0.9595    Y=              1.0960    Z=              1.2797  Tot=              1.9389
 Quadrupole moment (field-independent basis, Debye-Ang):
   XX=            -19.9361   YY=            -21.4131   ZZ=            -22.7236
   XY=             -1.3829   XZ=             -3.0956   YZ=              2.7913

 Normal termination of Gaussian 09 at Fri Apr 12 17:01:58 2019.
